TACC:  Starting up job 5559702 
TACC:  Starting parallel tasks... 

     Program PWSCF v.7.2 starts on 25Jun2023 at 18:58:30 

     This program is part of the open-source Quantum ESPRESSO suite
     for quantum simulation of materials; please cite
         "P. Giannozzi et al., J. Phys.:Condens. Matter 21 395502 (2009);
         "P. Giannozzi et al., J. Phys.:Condens. Matter 29 465901 (2017);
         "P. Giannozzi et al., J. Chem. Phys. 152 154105 (2020);
          URL http://www.quantum-espresso.org", 
     in publications or presentations arising from this work. More details at
     http://www.quantum-espresso.org/quote

     Parallel version (MPI & OpenMP), running on     896 processor cores
     Number of MPI processes:               896
     Threads/MPI process:                     1

     MPI processes distributed on    16 nodes
     178371 MiB available memory on the printing compute node when the environment starts
 
     Reading input from SMBA2PbI4_151_157.scf.in

     Current dimensions of program PWSCF are:
     Max number of different atomic species (ntypx) = 10
     Max number of k-points (npk) =  40000
     Max angular momentum in pseudopotentials (lmaxx) =  4
     file C.pbesol-n-kjpaw_psl.1.0.0.UPF: wavefunction(s)  2S 2P renormalized
 
     K-points division:     npool     =       8
     R & G space division:  proc/nbgrp/npool/nimage =     112
     Subspace diagonalization in iterative solution of the eigenvalue problem:
     one sub-group per band group will be used
     ELPA distributed-memory algorithm (size of sub-group:  7*  7 procs)

 
     Parallelization info
     --------------------
     sticks:   dense  smooth     PW     G-vecs:    dense   smooth      PW
     Min          74      37     10                16257     5747     802
     Max          75      38     11                16288     5766     816
     Sum        8397    4193   1127              1823067   644623   90567
 
     Using Slab Decomposition
 


     bravais-lattice index     =            0
     lattice parameter (alat)  =      15.9338  a.u.
     unit-cell volume          =   13495.8128 (a.u.)^3
     number of atoms/cell      =          188
     number of atomic types    =            5
     number of electrons       =       560.00
     number of Kohn-Sham states=          672
     kinetic-energy cutoff     =      50.0000  Ry
     charge density cutoff     =     400.0000  Ry
     scf convergence threshold =      3.8E-08
     mixing beta               =       0.4000
     number of iterations used =            8  plain     mixing
     Exchange-correlation= PBESOL
                           (   1   4  10   8   0   0   0)
     Non magnetic calculation with spin-orbit


     celldm(1)=  15.933831  celldm(2)=   0.000000  celldm(3)=   0.000000
     celldm(4)=   0.000000  celldm(5)=   0.000000  celldm(6)=   0.000000

     crystal axes: (cart. coord. in units of alat)
               a(1) = (   1.000000   0.000000   0.000000 )  
               a(2) = (  -0.000010   1.039086   0.000000 )  
               a(3) = (  -0.000410  -0.001376   3.210604 )  

     reciprocal axes: (cart. coord. in units 2 pi/alat)
               b(1) = (  1.000000  0.000009  0.000128 )  
               b(2) = (  0.000000  0.962384  0.000413 )  
               b(3) = (  0.000000  0.000000  0.311468 )  


     PseudoPot. # 1 for C  read from file:
     ./pseudo/C.pbesol-n-kjpaw_psl.1.0.0.UPF
     MD5 check sum: 5f3a56537b2bcef3348431d8311bb923
     Pseudo is Projector augmented-wave + core cor, Zval =  4.0
     Generated using "atomic" code by A. Dal Corso  v.6.0 svn rev. 13079
     Shape of augmentation charge: PSQ
     Using radial grid of 1073 points,  4 beta functions with: 
                l(1) =   0
                l(2) =   0
                l(3) =   1
                l(4) =   1
     Q(r) pseudized with 0 coefficients 


     PseudoPot. # 2 for H  read from file:
     ./pseudo/H.pbesol-rrkjus_psl.1.0.0.UPF
     MD5 check sum: 0324ed591cc0147dc3d88cad0d33f665
     Pseudo is Ultrasoft, Zval =  1.0
     Generated using "atomic" code by A. Dal Corso  v.6.0 svn rev. 13079
     Using radial grid of  929 points,  2 beta functions with: 
                l(1) =   0
                l(2) =   0
     Q(r) pseudized with 0 coefficients 


     PseudoPot. # 3 for I  read from file:
     ./pseudo/I.pbesol-n-kjpaw_psl.0.2.UPF
     MD5 check sum: cecf1a22a184a0b1ae701638a037a48d
     Pseudo is Projector augmented-wave + core cor, Zval =  7.0
     Generated using "atomic" code by A. Dal Corso  v.6.0 svn rev. 13079
     Shape of augmentation charge: PSQ
     Using radial grid of 1247 points,  4 beta functions with: 
                l(1) =   0
                l(2) =   0
                l(3) =   1
                l(4) =   1
     Q(r) pseudized with 0 coefficients 


     PseudoPot. # 4 for N  read from file:
     ./pseudo/N.pbesol-theos.UPF
     MD5 check sum: 1b64827339d390a5a22afef3ff345c9d
     Pseudo is Ultrasoft + core correction, Zval =  5.0
     Generated using "atomic" code by A. Dal Corso  v.5.1
     Using radial grid of 1085 points,  4 beta functions with: 
                l(1) =   0
                l(2) =   0
                l(3) =   1
                l(4) =   1
     Q(r) pseudized with 0 coefficients 


     PseudoPot. # 5 for Pb read from file:
     ./pseudo/Pb.pbesol-FR.upf
     MD5 check sum: 1a4a225ba40f39324ebf66196ded7c6c
     Pseudo is Norm-conserving + core correction, Zval = 14.0
     Generated using ONCVPSP code by D. R. Hamann
     Using radial grid of 1760 points, 10 beta functions with: 
                l(1) =   0
                l(2) =   0
                l(3) =   1
                l(4) =   1
                l(5) =   1
                l(6) =   1
                l(7) =   2
                l(8) =   2
                l(9) =   2
               l(10) =   2

     atomic species   valence    mass     pseudopotential
        C              4.00    12.01070     C ( 1.00)
        H              1.00     1.00794     H ( 1.00)
        I              7.00   126.90447     I ( 1.00)
        N              5.00    14.00670     N ( 1.00)
        Pb            14.00   207.20000     Pb( 1.00)

     No symmetry found



   Cartesian axes

     site n.     atom                  positions (alat units)
         1           Pb  tau(   1) = (   0.8520173   0.2665696   0.2368688  )
         2           Pb  tau(   2) = (   0.6477072   0.7854232   1.8458181  )
         3           Pb  tau(   3) = (   0.1477127   0.2520825   1.8419911  )
         4           Pb  tau(   4) = (   0.3520122   0.7723123   0.2403073  )
         5           I   tau(   5) = (   0.6598538   0.5895679   0.2410425  )
         6           I   tau(   6) = (   0.8398744   0.0693386   1.8413682  )
         7           I   tau(   7) = (   0.3398655   0.9681670   1.8463993  )
         8           I   tau(   8) = (   0.1598557   0.4493140   0.2362042  )
         9           I   tau(   9) = (   0.5458789   0.0473322   0.2406605  )
        10           I   tau(  10) = (   0.9538498   0.5661870   1.8417503  )
        11           I   tau(  11) = (   0.4538501   0.4713187   1.8459915  )
        12           I   tau(  12) = (   0.0458706   0.9915497   0.2365605  )
        13           I   tau(  13) = (   0.8700613   0.2287457   0.6079729  )
        14           I   tau(  14) = (   0.6296639   0.7479133   1.4747622  )
        15           I   tau(  15) = (   0.1295760   0.2895924   2.2130374  )
        16           I   tau(  16) = (   0.3697386   0.8087599   3.0798075  )
        17           I   tau(  17) = (   0.8650542   0.2287230   3.0777944  )
        18           I   tau(  18) = (   0.6342614   0.7486380   2.2154518  )
        19           I   tau(  19) = (   0.1343585   0.2888677   1.4723478  )
        20           I   tau(  20) = (   0.3653657   0.8087827   0.6099955  )
        21           C   tau(  21) = (   0.7977151   0.2690170   2.6602232  )
        22           C   tau(  22) = (   0.7016668   0.7887299   2.6328913  )
        23           C   tau(  23) = (   0.2018401   0.2488246   1.0549179  )
        24           C   tau(  24) = (   0.2979398   0.7685251   1.0276021  )
        25           C   tau(  25) = (   0.2140093   0.2098332   2.6395437  )
        26           C   tau(  26) = (   0.2852768   0.7294040   2.6529897  )
        27           C   tau(  27) = (   0.7854841   0.3081298   1.0347392  )
        28           C   tau(  28) = (   0.7142046   0.8277057   1.0482334  )
        29           C   tau(  29) = (   0.3181577   0.1117539   2.5571147  )
        30           C   tau(  30) = (   0.1812202   0.6312290   2.7353963  )
        31           C   tau(  31) = (   0.6814427   0.4063152   0.9523294  )
        32           C   tau(  32) = (   0.8183252   0.9257892   1.1307042  )
        33           C   tau(  33) = (   0.6785816   0.3707142   2.7117566  )
        34           C   tau(  34) = (   0.8208704   0.8904275   2.5814832  )
        35           C   tau(  35) = (   0.3210085   0.1471166   1.1063710  )
        36           C   tau(  36) = (   0.1788303   0.6668185   0.9760269  )
        37           C   tau(  37) = (   0.3696181   0.1739343   2.8784255  )
        38           C   tau(  38) = (   0.1294726   0.6937171   2.4142075  )
        39           C   tau(  39) = (   0.6296473   0.3438157   1.2735054  )
        40           C   tau(  40) = (   0.8699007   0.8635952   0.8094062  )
        41           C   tau(  41) = (   0.4480155   0.0453949   2.6342494  )
        42           C   tau(  42) = (   0.0512936   0.5649465   2.6583258  )
        43           C   tau(  43) = (   0.5515123   0.4726008   1.0293807  )
        44           C   tau(  44) = (   0.9482124   0.9921419   1.0536080  )
        45           C   tau(  45) = (   0.4017270   0.2142836   3.0492810  )
        46           C   tau(  46) = (   0.0973570   0.7340725   2.2433616  )
        47           C   tau(  47) = (   0.5975129   0.3034519   1.4443449  )
        48           C   tau(  48) = (   0.9020789   0.8232200   0.6385731  )
        49           C   tau(  49) = (   0.5656910   0.3746733   2.4493668  )
        50           C   tau(  50) = (   0.9337799   0.8939332   2.8438634  )
        51           C   tau(  51) = (   0.4340300   0.1435828   0.8440358  )
        52           C   tau(  52) = (   0.0658599   0.6628438   1.2383814  )
        53           C   tau(  53) = (   0.2391695   0.2399208   2.8000643  )
        54           C   tau(  54) = (   0.2599780   0.7596540   2.4925173  )
        55           C   tau(  55) = (   0.7601579   0.2778776   1.1952117  )
        56           C   tau(  56) = (   0.7394234   0.7976171   0.8877289  )
        57           C   tau(  57) = (   0.5628705   0.4243813   2.6066543  )
        58           C   tau(  58) = (   0.9366205   0.9438705   2.6866625  )
        59           C   tau(  59) = (   0.4367954   0.0936528   1.0012526  )
        60           C   tau(  60) = (   0.0630894   0.6131442   1.0811004  )
        61           C   tau(  61) = (   0.4741678   0.0762339   2.7943398  )
        62           C   tau(  62) = (   0.0249947   0.5959425   2.4982836  )
        63           C   tau(  63) = (   0.5251832   0.4415996   1.1894165  )
        64           C   tau(  64) = (   0.9744221   0.9612998   0.8935336  )
        65           C   tau(  65) = (   0.5380290   0.1482731   2.1679060  )
        66           C   tau(  66) = (   0.9613481   0.6672087   3.1250063  )
        67           C   tau(  67) = (   0.4616938   0.3702876   0.5628542  )
        68           C   tau(  68) = (   0.0381069   0.8892336   1.5198455  )
        69           C   tau(  69) = (   0.4210944   0.3901285   3.0802313  )
        70           C   tau(  70) = (   0.0777123   0.9098754   2.2123792  )
        71           C   tau(  71) = (   0.5778696   0.1276470   1.4753240  )
        72           C   tau(  72) = (   0.9214245   0.6473668   0.6076550  )
        73           C   tau(  73) = (   0.6861497   0.2731523   2.3965780  )
        74           C   tau(  74) = (   0.8132571   0.7924116   2.8965205  )
        75           C   tau(  75) = (   0.3135368   0.2451128   0.7913305  )
        76           C   tau(  76) = (   0.1863002   0.7643700   1.2912184  )
        77           C   tau(  77) = (   0.6916907   0.2169414   2.2279988  )
        78           C   tau(  78) = (   0.8076891   0.7359772   3.0650162  )
        79           C   tau(  79) = (   0.3080237   0.3015295   0.6228251  )
        80           C   tau(  80) = (   0.1917912   0.8205757   1.4597943  )
        81           C   tau(  81) = (   0.8027237   0.2225440   2.5022198  )
        82           C   tau(  82) = (   0.6966441   0.7420384   2.7908113  )
        83           C   tau(  83) = (   0.1968898   0.2955089   0.8969818  )
        84           C   tau(  84) = (   0.3029002   0.8149907   1.1856023  )
        85           H   tau(  85) = (   0.8851949   0.2246402   2.7437760  )
        86           H   tau(  86) = (   0.6141619   0.7445256   2.5492744  )
        87           H   tau(  87) = (   0.1143090   0.2930477   1.1384931  )
        88           H   tau(  88) = (   0.3854370   0.8129122   0.9440686  )
        89           H   tau(  89) = (   0.1163027   0.2664079   2.5775437  )
        90           H   tau(  90) = (   0.3830373   0.7859349   2.7149544  )
        91           H   tau(  91) = (   0.8832476   0.2515947   0.9727874  )
        92           H   tau(  92) = (   0.6164792   0.7711310   1.1102045  )
        93           H   tau(  93) = (   0.2991479   0.0908930   2.4313938  )
        94           H   tau(  94) = (   0.2003563   0.6102271   2.8610850  )
        95           H   tau(  95) = (   0.7006016   0.4273233   0.8266407  )
        96           H   tau(  96) = (   0.7992699   0.9466521   1.2564122  )
        97           H   tau(  97) = (   0.6769905   0.4058944   2.8356506  )
        98           H   tau(  98) = (   0.8224839   0.9257794   2.4576534  )
        99           H   tau(  99) = (   0.3225590   0.1117647   1.2302072  )
       100           H   tau( 100) = (   0.1772864   0.6316393   0.8521361  )
       101           H   tau( 101) = (   0.5315488   1.0112660   2.5693920  )
       102           H   tau( 102) = (   0.9678080   0.4916527   2.7231703  )
       103           H   tau( 103) = (   0.4680409   0.5459060   0.9645265  )
       104           H   tau( 104) = (   0.0317421   0.0262718   1.1184975  )
       105           H   tau( 105) = (   0.5077834   0.1504426   3.0895067  )
       106           H   tau( 106) = (   0.9914327   0.6700624   2.2030589  )
       107           H   tau( 107) = (   0.4915882   0.3674631   1.4846444  )
       108           H   tau( 108) = (   0.0081654   0.8870371   0.5983860  )
       109           H   tau( 109) = (   0.4715959   0.4124857   2.3693810  )
       110           H   tau( 110) = (   0.0279123   0.9315398   2.9239069  )
       111           H   tau( 111) = (   0.5281895   0.1059554   0.7640403  )
       112           H   tau( 112) = (   0.9717430   0.6250262   1.3183447  )
       113           H   tau( 113) = (   0.1574907   0.3172359   2.8634513  )
       114           H   tau( 114) = (   0.3415963   0.8370246   2.4291336  )
       115           H   tau( 115) = (   0.8417616   0.2004988   1.2586018  )
       116           H   tau( 116) = (   0.6577682   0.7202957   0.8243162  )
       117           H   tau( 117) = (   0.4675976   0.5010994   2.6470919  )
       118           H   tau( 118) = (   0.0319369   1.0205879   2.6463117  )
       119           H   tau( 119) = (   0.5320869   0.0169301   1.0416420  )
       120           H   tau( 120) = (   0.9678313   0.5364219   1.0406243  )
       121           H   tau( 121) = (   0.5778247   0.0268541   2.8532993  )
       122           H   tau( 122) = (   0.9212967   0.5466049   2.4393690  )
       123           H   tau( 123) = (   0.4214822   0.4909424   1.2483215  )
       124           H   tau( 124) = (   0.0781052   1.0106723   0.8346094  )
       125           H   tau( 125) = (   0.7237649   0.3290849   2.0072120  )
       126           H   tau( 126) = (   0.7759725   0.8492765   0.0753240  )
       127           H   tau( 127) = (   0.2759460   0.1895826   0.4019195  )
       128           H   tau( 128) = (   0.2238430   0.7084353   1.6805876  )
       129           H   tau( 129) = (   0.6810881   0.4585384   2.1526845  )
       130           H   tau( 130) = (   0.8183023   0.9774815   3.1405842  )
       131           H   tau( 131) = (   0.3186536   0.0600137   0.5472860  )
       132           H   tau( 132) = (   0.1811908   0.5789766   1.5351087  )
       133           H   tau( 133) = (   0.8618182   0.3737556   2.1420702  )
       134           H   tau( 134) = (   0.6375667   0.8927354   3.1510604  )
       135           H   tau( 135) = (   0.1379212   0.1447609   0.5367649  )
       136           H   tau( 136) = (   0.3619126   0.6637698   1.5457422  )
       137           H   tau( 137) = (   0.2695114   0.0290863   3.1459202  )
       138           H   tau( 138) = (   0.2298580   0.5490703   2.1467770  )
       139           H   tau( 139) = (   0.7300099   0.4884458   1.5409552  )
       140           H   tau( 140) = (   0.7699265   1.0084204   0.5418408  )
       141           H   tau( 141) = (   0.2834680   0.1879080   0.0565933  )
       142           H   tau( 142) = (   0.2162530   0.7065387   2.0255317  )
       143           H   tau( 143) = (   0.7164169   0.3309587   1.6621748  )
       144           H   tau( 144) = (   0.7835165   0.8509510   0.4205924  )
       145           H   tau( 145) = (   0.1574379   0.1920577   3.1143054  )
       146           H   tau( 146) = (   0.3417275   0.7121247   2.1785459  )
       147           H   tau( 147) = (   0.8418854   0.3253976   1.5091574  )
       148           H   tau( 148) = (   0.6578310   0.8454615   0.5734364  )
       149           H   tau( 149) = (   0.5498011   0.1099734   2.0445224  )
       150           H   tau( 150) = (   0.9499514   0.6299061   0.0376636  )
       151           H   tau( 151) = (   0.4499181   0.4089228   0.4395767  )
       152           H   tau( 152) = (   0.0498328   0.9275230   1.6432354  )
       153           H   tau( 153) = (   0.5070680   0.0439580   2.2385938  )
       154           H   tau( 154) = (   0.9923861   0.5631258   3.0540135  )
       155           H   tau( 155) = (   0.4927037   0.4744007   0.6338182  )
       156           H   tau( 156) = (   0.0071719   0.9935549   1.4491544  )
       157           H   tau( 157) = (   0.4408203   0.2336548   2.1753321  )
       158           H   tau( 158) = (   0.0585222   0.7526527   3.1178628  )
       159           H   tau( 159) = (   0.5588726   0.2848519   0.5700524  )
       160           H   tau( 160) = (   0.9409026   0.8038509   1.5123744  )
       161           H   tau( 161) = (   0.3113389   0.4551046   3.0559045  )
       162           H   tau( 162) = (   0.1872586   0.9750903   2.2369982  )
       163           H   tau( 163) = (   0.6874403   0.0624455   1.4507758  )
       164           H   tau( 164) = (   0.8116340   0.5824239   0.6319176  )
       165           H   tau( 165) = (   0.4555565   0.4135206   3.2033997  )
       166           H   tau( 166) = (   0.0435268   0.9331933   2.0891209  )
       167           H   tau( 167) = (   0.5436161   0.1043321   1.5985663  )
       168           H   tau( 168) = (   0.9559584   0.6239497   0.4845123  )
       169           H   tau( 169) = (   0.5135468   0.4380353   3.0031928  )
       170           H   tau( 170) = (   0.9849221   0.9575615   2.2891512  )
       171           H   tau( 171) = (   0.4851348   0.0799401   1.3985007  )
       172           H   tau( 172) = (   0.0138101   0.5994412   0.6847609  )
       173           H   tau( 173) = (   0.7875973   0.1299446   2.2142446  )
       174           H   tau( 174) = (   0.7117712   0.6489718   3.0786516  )
       175           H   tau( 175) = (   0.2121097   0.3885349   0.6091544  )
       176           H   tau( 176) = (   0.2876866   0.9075819   1.4735775  )
       177           H   tau( 177) = (   0.8972128   0.1460824   2.4595797  )
       178           H   tau( 178) = (   0.6021053   0.6655766   2.8333551  )
       179           H   tau( 179) = (   0.1023765   0.3719758   0.8543996  )
       180           H   tau( 180) = (   0.3973720   0.8914565   1.2282777  )
       181           N   tau( 181) = (   0.7408075   0.3541843   2.1254393  )
       182           N   tau( 182) = (   0.7585638   0.8731145   3.1677170  )
       183           N   tau( 183) = (   0.2589211   0.1643808   0.5201307  )
       184           N   tau( 184) = (   0.2408983   0.6833349   1.5623635  )
       185           N   tau( 185) = (   0.2688046   0.1528114   3.1507297  )
       186           N   tau( 186) = (   0.2304355   0.6727943   2.1419996  )
       187           N   tau( 187) = (   0.7305924   0.3647228   1.5457101  )
       188           N   tau( 188) = (   0.7692143   0.8846932   0.5370474  )

     number of k points=    40  Marzari-Vanderbilt smearing, width (Ry)=  0.0147
                       cart. coord. in units 2pi/alat
        k(    1) = (   0.0000000   0.0000000   0.0000000), wk =   0.0138889
        k(    2) = (   0.0000000   0.0000000  -0.1557339), wk =   0.0138889
        k(    3) = (   0.0000000   0.1603973   0.0000688), wk =   0.0277778
        k(    4) = (   0.0000000   0.1603973  -0.1556652), wk =   0.0277778
        k(    5) = (   0.0000000   0.3207946   0.0001375), wk =   0.0277778
        k(    6) = (   0.0000000   0.3207946  -0.1555964), wk =   0.0277778
        k(    7) = (   0.0000000  -0.4811919  -0.0002063), wk =   0.0138889
        k(    8) = (   0.0000000  -0.4811919  -0.1559402), wk =   0.0138889
        k(    9) = (   0.1666667   0.0000015   0.0000213), wk =   0.0277778
        k(   10) = (   0.1666667   0.0000015  -0.1557127), wk =   0.0277778
        k(   11) = (   0.1666667   0.1603988   0.0000900), wk =   0.0277778
        k(   12) = (   0.1666667   0.1603988  -0.1556439), wk =   0.0277778
        k(   13) = (   0.1666667   0.3207961   0.0001588), wk =   0.0277778
        k(   14) = (   0.1666667   0.3207961  -0.1555751), wk =   0.0277778
        k(   15) = (   0.1666667  -0.4811904  -0.0001850), wk =   0.0277778
        k(   16) = (   0.1666667  -0.4811904  -0.1559189), wk =   0.0277778
        k(   17) = (   0.1666667  -0.3207931  -0.0001162), wk =   0.0277778
        k(   18) = (   0.1666667  -0.3207931  -0.1558502), wk =   0.0277778
        k(   19) = (   0.1666667  -0.1603958  -0.0000475), wk =   0.0277778
        k(   20) = (   0.1666667  -0.1603958  -0.1557814), wk =   0.0277778
        k(   21) = (   0.3333333   0.0000031   0.0000425), wk =   0.0277778
        k(   22) = (   0.3333333   0.0000031  -0.1556914), wk =   0.0277778
        k(   23) = (   0.3333333   0.1604004   0.0001113), wk =   0.0277778
        k(   24) = (   0.3333333   0.1604004  -0.1556226), wk =   0.0277778
        k(   25) = (   0.3333333   0.3207977   0.0001800), wk =   0.0277778
        k(   26) = (   0.3333333   0.3207977  -0.1555539), wk =   0.0277778
        k(   27) = (   0.3333333  -0.4811888  -0.0001637), wk =   0.0277778
        k(   28) = (   0.3333333  -0.4811888  -0.1558977), wk =   0.0277778
        k(   29) = (   0.3333333  -0.3207915  -0.0000950), wk =   0.0277778
        k(   30) = (   0.3333333  -0.3207915  -0.1558289), wk =   0.0277778
        k(   31) = (   0.3333333  -0.1603942  -0.0000262), wk =   0.0277778
        k(   32) = (   0.3333333  -0.1603942  -0.1557601), wk =   0.0277778
        k(   33) = (  -0.5000000  -0.0000046  -0.0000638), wk =   0.0138889
        k(   34) = (  -0.5000000  -0.0000046  -0.1557977), wk =   0.0138889
        k(   35) = (  -0.5000000   0.1603927   0.0000050), wk =   0.0277778
        k(   36) = (  -0.5000000   0.1603927  -0.1557290), wk =   0.0277778
        k(   37) = (  -0.5000000   0.3207900   0.0000737), wk =   0.0277778
        k(   38) = (  -0.5000000   0.3207900  -0.1556602), wk =   0.0277778
        k(   39) = (  -0.5000000  -0.4811965  -0.0002701), wk =   0.0138889
        k(   40) = (  -0.5000000  -0.4811965  -0.1560040), wk =   0.0138889

     Dense  grid:  1823067 G-vectors     FFT dimensions: ( 108, 108, 360)

     Smooth grid:   644623 G-vectors     FFT dimensions: (  72,  75, 240)

     Estimated max dynamical RAM per process >     264.24 MB

     Estimated total dynamical RAM >     219.05 GB

     Check: negative core charge=   -0.000003

     Initial potential from superposition of free atoms

     starting charge     559.9858, renormalised to     560.0000
     Starting wfcs are  968 randomized atomic wfcs
     Checking if some PAW data can be deallocated... 

     total cpu time spent up to now is       20.4 secs

     Self-consistent Calculation

     iteration #  1     ecut=    50.00 Ry     beta= 0.40
     Davidson diagonalization with overlap
     ethr =  1.00E-02,  avg # of iterations =  4.4

     total cpu time spent up to now is       70.1 secs

     total energy              =   -7958.92086953 Ry
     estimated scf accuracy    <      17.68727299 Ry

     iteration #  2     ecut=    50.00 Ry     beta= 0.40
     Davidson diagonalization with overlap
     ethr =  3.16E-03,  avg # of iterations =  6.4
     Minimization algorithm failed to find Fermi energy: reverting to bisection
     Possible cause: smearing is larger than the electronic band-gap.

     total cpu time spent up to now is      115.3 secs

     total energy              =   -7960.59326718 Ry
     estimated scf accuracy    <       2.62607192 Ry

     iteration #  3     ecut=    50.00 Ry     beta= 0.40
     Davidson diagonalization with overlap
     ethr =  4.69E-04,  avg # of iterations =  8.7

     total cpu time spent up to now is      165.0 secs

     total energy              =   -7960.78292630 Ry
     estimated scf accuracy    <       0.65909401 Ry

     iteration #  4     ecut=    50.00 Ry     beta= 0.40
     Davidson diagonalization with overlap
     ethr =  1.18E-04,  avg # of iterations = 10.4

     negative rho (up, down):  4.414E-06 0.000E+00

     total cpu time spent up to now is      212.2 secs

     total energy              =   -7960.81388023 Ry
     estimated scf accuracy    <       0.11635162 Ry

     iteration #  5     ecut=    50.00 Ry     beta= 0.40
     Davidson diagonalization with overlap
     ethr =  2.08E-05,  avg # of iterations = 11.3

     negative rho (up, down):  7.085E-06 0.000E+00

     total cpu time spent up to now is      269.2 secs

     total energy              =   -7960.82434891 Ry
     estimated scf accuracy    <       0.01051300 Ry

     iteration #  6     ecut=    50.00 Ry     beta= 0.40
     Davidson diagonalization with overlap
     c_bands:  1 eigenvalues not converged
     ethr =  1.88E-06,  avg # of iterations = 13.8

     negative rho (up, down):  9.084E-06 0.000E+00

     total cpu time spent up to now is      333.1 secs

     total energy              =   -7960.82508298 Ry
     estimated scf accuracy    <       0.00377138 Ry

     iteration #  7     ecut=    50.00 Ry     beta= 0.40
     Davidson diagonalization with overlap
     ethr =  6.73E-07,  avg # of iterations = 13.2

     negative rho (up, down):  1.044E-05 0.000E+00

     total cpu time spent up to now is      388.7 secs

     total energy              =   -7960.82570545 Ry
     estimated scf accuracy    <       0.00134119 Ry

     iteration #  8     ecut=    50.00 Ry     beta= 0.40
     Davidson diagonalization with overlap
     ethr =  2.39E-07,  avg # of iterations =  4.2

     negative rho (up, down):  1.073E-05 0.000E+00

     total cpu time spent up to now is      429.0 secs

     total energy              =   -7960.82586727 Ry
     estimated scf accuracy    <       0.00013114 Ry

     iteration #  9     ecut=    50.00 Ry     beta= 0.40
     Davidson diagonalization with overlap
     ethr =  2.34E-08,  avg # of iterations =  2.9

     negative rho (up, down):  1.064E-05 0.000E+00

     total cpu time spent up to now is      471.6 secs

     total energy              =   -7960.82589644 Ry
     estimated scf accuracy    <       0.00001566 Ry

     iteration # 10     ecut=    50.00 Ry     beta= 0.40
     Davidson diagonalization with overlap
     ethr =  2.80E-09,  avg # of iterations =  3.1

     negative rho (up, down):  1.038E-05 0.000E+00

     total cpu time spent up to now is      515.2 secs

     total energy              =   -7960.82589769 Ry
     estimated scf accuracy    <       0.00000456 Ry

     iteration # 11     ecut=    50.00 Ry     beta= 0.40
     Davidson diagonalization with overlap
     ethr =  8.14E-10,  avg # of iterations =  3.3

     negative rho (up, down):  1.024E-05 0.000E+00

     total cpu time spent up to now is      556.9 secs

     total energy              =   -7960.82589860 Ry
     estimated scf accuracy    <       0.00000030 Ry

     iteration # 12     ecut=    50.00 Ry     beta= 0.40
     Davidson diagonalization with overlap
     ethr =  5.41E-11,  avg # of iterations =  4.0

     negative rho (up, down):  1.014E-05 0.000E+00

     total cpu time spent up to now is      605.2 secs

     total energy              =   -7960.82589869 Ry
     estimated scf accuracy    <       0.00000008 Ry

     iteration # 13     ecut=    50.00 Ry     beta= 0.40
     Davidson diagonalization with overlap
     ethr =  1.37E-11,  avg # of iterations =  2.9

     negative rho (up, down):  1.001E-05 0.000E+00

     total cpu time spent up to now is      648.8 secs

     End of self-consistent calculation

          k = 0.0000 0.0000 0.0000 ( 80537 PWs)   bands (ev):

   -16.5948 -16.5948 -16.5933 -16.5933 -16.5911 -16.5911 -16.5896 -16.5896
   -16.5659 -16.5659 -16.5654 -16.5654 -16.5637 -16.5637 -16.5632 -16.5632
   -14.5879 -14.5879 -14.5871 -14.5871 -14.5810 -14.5810 -14.5801 -14.5801
   -14.5397 -14.5397 -14.5390 -14.5390 -14.5373 -14.5373 -14.5366 -14.5366
   -13.4689 -13.4689 -13.4681 -13.4681 -13.3245 -13.3245 -13.3238 -13.3238
   -13.2328 -13.2328 -13.2320 -13.2320 -13.2099 -13.2099 -13.2088 -13.2088
   -12.0689 -12.0689 -12.0681 -12.0681 -12.0354 -12.0354 -12.0346 -12.0346
   -11.9979 -11.9979 -11.9971 -11.9971 -11.9847 -11.9847 -11.9839 -11.9839
   -11.9647 -11.9647 -11.9644 -11.9644 -11.9639 -11.9639 -11.9636 -11.9636
   -11.6074 -11.6074 -11.6023 -11.6023 -11.5795 -11.5795 -11.5765 -11.5765
   -11.5658 -11.5658 -11.5653 -11.5653 -11.5329 -11.5329 -11.5291 -11.5291
   -10.5707 -10.5707 -10.5706 -10.5706 -10.3770 -10.3770 -10.3768 -10.3768
   -10.3392 -10.3392 -10.3390 -10.3390 -10.2307 -10.2307 -10.2305 -10.2305
   -10.0686 -10.0686 -10.0551 -10.0551 -10.0417 -10.0417 -10.0242 -10.0242
    -9.9947  -9.9947  -9.9924  -9.9924  -9.9727  -9.9727  -9.9723  -9.9723
    -9.3864  -9.3864  -9.3583  -9.3583  -8.9268  -8.9268  -8.9252  -8.9252
    -8.9052  -8.9052  -8.9035  -8.9035  -8.6232  -8.6232  -8.6214  -8.6214
    -8.5781  -8.5781  -8.5770  -8.5770  -8.5638  -8.5638  -8.5378  -8.5378
    -8.5245  -8.5245  -8.5031  -8.5031  -8.4130  -8.4130  -8.4111  -8.4111
    -8.0734  -8.0734  -8.0709  -8.0709  -8.0621  -8.0621  -8.0439  -8.0439
    -8.0017  -8.0017  -7.9811  -7.9811  -7.9240  -7.9240  -7.8997  -7.8997
    -7.0747  -7.0747  -7.0736  -7.0736  -7.0730  -7.0730  -7.0620  -7.0620
    -6.9722  -6.9722  -6.9651  -6.9651  -6.9625  -6.9625  -6.9547  -6.9547
    -6.5523  -6.5523  -6.5433  -6.5433  -6.4493  -6.4493  -6.4473  -6.4473
    -6.3935  -6.3935  -6.3924  -6.3924  -6.3895  -6.3895  -6.3796  -6.3796
    -5.9215  -5.9215  -5.9214  -5.9214  -5.8216  -5.8216  -5.7980  -5.7980
    -5.7812  -5.7812  -5.7571  -5.7571  -5.7426  -5.7426  -5.7384  -5.7384
    -5.7161  -5.7161  -5.7159  -5.7159  -5.6979  -5.6979  -5.6976  -5.6976
    -5.6108  -5.6108  -5.5974  -5.5974  -5.5875  -5.5875  -5.5747  -5.5747
    -5.0432  -5.0432  -5.0421  -5.0421  -5.0373  -5.0373  -4.9973  -4.9973
    -4.7495  -4.7495  -4.7335  -4.7335  -4.7059  -4.7059  -4.6941  -4.6941
    -4.5694  -4.5694  -4.5650  -4.5650  -4.0186  -4.0186  -4.0144  -4.0144
    -3.9695  -3.9695  -3.9631  -3.9631  -3.8877  -3.8877  -3.8815  -3.8815
    -3.8591  -3.8591  -3.8529  -3.8529  -3.8259  -3.8259  -3.8102  -3.8102
    -3.3418  -3.3418  -3.3323  -3.3323  -3.3004  -3.3004  -3.2920  -3.2920
    -3.2697  -3.2697  -3.2670  -3.2670  -3.2423  -3.2423  -3.2329  -3.2329
    -2.9114  -2.9114  -2.9101  -2.9101  -2.9018  -2.9018  -2.8965  -2.8965
    -2.8042  -2.8042  -2.7927  -2.7927  -2.7413  -2.7413  -2.7370  -2.7370
    -2.6492  -2.6492  -2.6484  -2.6484  -2.4758  -2.4758  -2.4704  -2.4704
    -2.4687  -2.4687  -2.4483  -2.4483  -2.4327  -2.4327  -2.4128  -2.4128
    -2.3681  -2.3681  -2.3592  -2.3592  -2.1716  -2.1716  -2.1556  -2.1556
    -1.9752  -1.9752  -1.9710  -1.9710  -1.8976  -1.8976  -1.8531  -1.8531
    -1.8490  -1.8490  -1.8384  -1.8384  -1.7917  -1.7917  -1.7812  -1.7812
    -1.7223  -1.7223  -1.7128  -1.7128  -1.7087  -1.7087  -1.6853  -1.6853
    -1.6512  -1.6512  -1.6120  -1.6120  -1.5460  -1.5460  -1.5355  -1.5355
    -1.4575  -1.4575  -1.4235  -1.4235  -1.4120  -1.4120  -1.3615  -1.3615
    -1.3424  -1.3424  -1.2705  -1.2705  -1.2282  -1.2282  -1.2092  -1.2092
    -1.0124  -1.0124  -1.0005  -1.0005  -0.9994  -0.9994  -0.9741  -0.9741
    -0.9306  -0.9306  -0.8448  -0.8448  -0.8123  -0.8123  -0.8065  -0.8065
    -0.7157  -0.7157  -0.7050  -0.7050  -0.6231  -0.6231  -0.6150  -0.6150
    -0.4486  -0.4486  -0.4163  -0.4163  -0.3210  -0.3210  -0.2757  -0.2757
    -0.2488  -0.2488  -0.2215  -0.2215  -0.1991  -0.1991  -0.1949  -0.1949
    -0.1543  -0.1543  -0.1361  -0.1361  -0.0673  -0.0673  -0.0558  -0.0558
    -0.0473  -0.0473  -0.0439  -0.0439  -0.0298  -0.0298  -0.0093  -0.0093
     0.0167   0.0167   0.0195   0.0195   0.0335   0.0335   0.0524   0.0524
     0.4370   0.4370   0.4420   0.4420   0.6424   0.6424   0.6823   0.6823
     0.8445   0.8445   0.8508   0.8508   1.0738   1.0738   1.1447   1.1447
     1.1753   1.1753   1.1779   1.1779   1.2126   1.2126   1.2435   1.2435
     1.2964   1.2964   1.3373   1.3373   1.3734   1.3734   1.4109   1.4109
     1.4302   1.4302   1.4671   1.4671   1.4936   1.4936   1.5026   1.5026
     1.5312   1.5312   1.5343   1.5343   1.5427   1.5427   1.5571   1.5571
     1.5647   1.5647   1.5749   1.5749   1.6548   1.6548   1.6813   1.6813
     1.6993   1.6993   1.7161   1.7161   1.7330   1.7330   1.7552   1.7552
     1.7665   1.7665   1.8251   1.8251   1.8349   1.8349   1.8630   1.8630
     1.8963   1.8963   1.8993   1.8993   1.9299   1.9299   1.9329   1.9329
     1.9738   1.9738   1.9825   1.9825   1.9875   1.9875   2.0365   2.0365
     2.0741   2.0741   2.0898   2.0898   2.0913   2.0913   2.0959   2.0959
     2.1029   2.1029   2.1136   2.1136   2.1415   2.1415   2.1906   2.1906
     2.2204   2.2204   2.2219   2.2219   2.2526   2.2526   2.3245   2.3245
     2.3792   2.3792   2.5354   2.5354   3.0514   3.0514   3.0801   3.0801
     4.2656   4.2656   4.2757   4.2757   5.3945   5.3945   5.3964   5.3964
     6.1209   6.1209   6.2571   6.2571   6.2994   6.2994   6.3340   6.3340
     6.4923   6.4923   6.5764   6.5764   6.6050   6.6050   6.6183   6.6183
     6.6394   6.6394   6.6585   6.6585   6.7727   6.7727   6.8042   6.8042
     6.8404   6.8404   6.8651   6.8651   6.8792   6.8792   6.8953   6.8953
     6.9164   6.9164   6.9238   6.9238   7.0233   7.0233   7.0291   7.0291
     7.1739   7.1739   7.2338   7.2338   7.7516   7.7516   7.8428   7.8428
     7.8632   7.8632   7.9592   7.9592   7.9989   7.9989   8.0281   8.0281
     8.0465   8.0465   8.0819   8.0819   8.1100   8.1100   8.3196   8.3196
     8.5011   8.5011   8.5149   8.5149   8.5584   8.5584   8.5764   8.5764
     8.6011   8.6011   8.6110   8.6110   8.6565   8.6565   8.6692   8.6692
     8.6805   8.6805   8.6974   8.6974   8.7284   8.7284   8.7684   8.7684
     8.9944   8.9944   9.0249   9.0249   9.1110   9.1110   9.1254   9.1254
     9.1692   9.1692   9.1888   9.1888   9.2469   9.2470   9.2688   9.2688

          k = 0.0000 0.0000-0.1557 ( 80560 PWs)   bands (ev):

   -16.5948 -16.5948 -16.5933 -16.5933 -16.5911 -16.5911 -16.5896 -16.5896
   -16.5659 -16.5659 -16.5655 -16.5655 -16.5637 -16.5637 -16.5632 -16.5632
   -14.5879 -14.5879 -14.5871 -14.5871 -14.5810 -14.5810 -14.5801 -14.5801
   -14.5397 -14.5397 -14.5390 -14.5390 -14.5373 -14.5373 -14.5366 -14.5366
   -13.4685 -13.4685 -13.4685 -13.4685 -13.3242 -13.3242 -13.3241 -13.3241
   -13.2325 -13.2325 -13.2324 -13.2324 -13.2094 -13.2094 -13.2093 -13.2093
   -12.0689 -12.0689 -12.0681 -12.0681 -12.0355 -12.0355 -12.0346 -12.0346
   -11.9979 -11.9979 -11.9971 -11.9971 -11.9847 -11.9847 -11.9839 -11.9839
   -11.9647 -11.9647 -11.9644 -11.9644 -11.9639 -11.9639 -11.9636 -11.9636
   -11.6051 -11.6051 -11.6051 -11.6051 -11.5774 -11.5774 -11.5773 -11.5773
   -11.5661 -11.5661 -11.5660 -11.5660 -11.5310 -11.5310 -11.5308 -11.5308
   -10.5707 -10.5707 -10.5707 -10.5707 -10.3769 -10.3769 -10.3769 -10.3769
   -10.3391 -10.3391 -10.3390 -10.3390 -10.2306 -10.2306 -10.2305 -10.2305
   -10.0639 -10.0639 -10.0635 -10.0635 -10.0312 -10.0312 -10.0309 -10.0309
    -9.9935  -9.9935  -9.9934  -9.9934  -9.9728  -9.9728  -9.9727  -9.9727
    -9.3733  -9.3733  -9.3717  -9.3717  -8.9269  -8.9269  -8.9250  -8.9250
    -8.9053  -8.9053  -8.9035  -8.9035  -8.6230  -8.6230  -8.6216  -8.6216
    -8.5792  -8.5792  -8.5784  -8.5784  -8.5472  -8.5472  -8.5463  -8.5463
    -8.5174  -8.5174  -8.5160  -8.5160  -8.4126  -8.4126  -8.4113  -8.4113
    -8.0734  -8.0734  -8.0732  -8.0732  -8.0525  -8.0525  -8.0524  -8.0524
    -7.9920  -7.9920  -7.9919  -7.9919  -7.9107  -7.9107  -7.9105  -7.9105
    -7.0751  -7.0751  -7.0746  -7.0746  -7.0670  -7.0670  -7.0665  -7.0665
    -6.9701  -6.9701  -6.9695  -6.9695  -6.9578  -6.9578  -6.9572  -6.9572
    -6.5480  -6.5480  -6.5479  -6.5479  -6.4483  -6.4483  -6.4482  -6.4482
    -6.3934  -6.3934  -6.3932  -6.3932  -6.3843  -6.3843  -6.3840  -6.3840
    -5.9214  -5.9214  -5.9213  -5.9213  -5.8132  -5.8132  -5.8126  -5.8126
    -5.7664  -5.7664  -5.7661  -5.7661  -5.7406  -5.7406  -5.7404  -5.7404
    -5.7161  -5.7161  -5.7158  -5.7158  -5.6977  -5.6977  -5.6975  -5.6975
    -5.6063  -5.6063  -5.6056  -5.6056  -5.5797  -5.5797  -5.5790  -5.5790
    -5.0447  -5.0447  -5.0440  -5.0440  -5.0151  -5.0151  -5.0149  -5.0149
    -4.7476  -4.7476  -4.7473  -4.7473  -4.6948  -4.6948  -4.6947  -4.6947
    -4.5671  -4.5671  -4.5670  -4.5670  -4.0168  -4.0168  -4.0167  -4.0167
    -3.9664  -3.9664  -3.9662  -3.9662  -3.8837  -3.8837  -3.8835  -3.8835
    -3.8560  -3.8560  -3.8557  -3.8557  -3.8194  -3.8194  -3.8184  -3.8184
    -3.3372  -3.3372  -3.3370  -3.3370  -3.2969  -3.2969  -3.2967  -3.2967
    -3.2683  -3.2683  -3.2682  -3.2682  -3.2372  -3.2372  -3.2371  -3.2371
    -2.9071  -2.9071  -2.9069  -2.9069  -2.9029  -2.9029  -2.9028  -2.9028
    -2.7986  -2.7986  -2.7984  -2.7984  -2.7391  -2.7391  -2.7390  -2.7390
    -2.6488  -2.6488  -2.6488  -2.6488  -2.4708  -2.4708  -2.4706  -2.4706
    -2.4653  -2.4653  -2.4647  -2.4647  -2.4184  -2.4184  -2.4180  -2.4180
    -2.3646  -2.3646  -2.3639  -2.3639  -2.1640  -2.1640  -2.1639  -2.1639
    -1.9737  -1.9737  -1.9735  -1.9735  -1.8716  -1.8716  -1.8711  -1.8711
    -1.8449  -1.8449  -1.8445  -1.8445  -1.7744  -1.7744  -1.7733  -1.7733
    -1.7433  -1.7433  -1.7426  -1.7426  -1.6910  -1.6910  -1.6901  -1.6901
    -1.6354  -1.6354  -1.6349  -1.6349  -1.5387  -1.5387  -1.5384  -1.5384
    -1.4221  -1.4221  -1.4212  -1.4212  -1.4075  -1.4075  -1.4066  -1.4066
    -1.3006  -1.3006  -1.3000  -1.3000  -1.2206  -1.2206  -1.2166  -1.2166
    -1.0092  -1.0092  -1.0003  -1.0003  -0.9980  -0.9980  -0.9954  -0.9954
    -0.8853  -0.8853  -0.8726  -0.8726  -0.8103  -0.8103  -0.8069  -0.8069
    -0.7133  -0.7133  -0.7064  -0.7064  -0.6327  -0.6327  -0.6037  -0.6037
    -0.4493  -0.4493  -0.4327  -0.4327  -0.2952  -0.2952  -0.2904  -0.2904
    -0.2411  -0.2411  -0.2400  -0.2400  -0.1858  -0.1858  -0.1788  -0.1788
    -0.1402  -0.1402  -0.1390  -0.1390  -0.0753  -0.0753  -0.0739  -0.0739
    -0.0514  -0.0514  -0.0485  -0.0485  -0.0161  -0.0161  -0.0154  -0.0154
     0.0148   0.0148   0.0156   0.0156   0.0424   0.0424   0.0449   0.0449
     0.4379   0.4379   0.4439   0.4439   0.6579   0.6579   0.6614   0.6614
     0.8508   0.8508   0.8529   0.8529   1.1162   1.1162   1.1171   1.1171
     1.1760   1.1760   1.1774   1.1774   1.2197   1.2197   1.2234   1.2234
     1.3212   1.3212   1.3351   1.3351   1.3653   1.3653   1.3872   1.3872
     1.4327   1.4327   1.4520   1.4520   1.5001   1.5001   1.5133   1.5133
     1.5267   1.5267   1.5279   1.5279   1.5389   1.5389   1.5463   1.5463
     1.5577   1.5577   1.5625   1.5625   1.6762   1.6762   1.6765   1.6765
     1.7340   1.7340   1.7348   1.7348   1.7436   1.7436   1.7460   1.7460
     1.7597   1.7597   1.7616   1.7616   1.8777   1.8777   1.8785   1.8785
     1.9027   1.9027   1.9040   1.9040   1.9294   1.9294   1.9350   1.9350
     1.9746   1.9746   1.9760   1.9760   2.0144   2.0144   2.0160   2.0160
     2.0517   2.0517   2.0527   2.0527   2.1017   2.1017   2.1037   2.1037
     2.1265   2.1265   2.1268   2.1268   2.1710   2.1710   2.1714   2.1714
     2.2163   2.2163   2.2167   2.2167   2.2488   2.2488   2.2492   2.2492
     2.4854   2.4854   2.4855   2.4855   3.0649   3.0649   3.0657   3.0657
     4.2702   4.2702   4.2713   4.2713   5.3947   5.3947   5.3961   5.3961
     6.1706   6.1706   6.1933   6.1933   6.3159   6.3159   6.3302   6.3302
     6.5028   6.5028   6.5079   6.5079   6.6258   6.6258   6.6346   6.6346
     6.6454   6.6454   6.7000   6.7000   6.7528   6.7528   6.8023   6.8023
     6.8522   6.8522   6.8570   6.8570   6.8834   6.8834   6.8909   6.8909
     6.9078   6.9079   6.9266   6.9266   7.0265   7.0265   7.0272   7.0272
     7.2021   7.2021   7.2026   7.2026   7.7863   7.7863   7.7875   7.7875
     7.8830   7.8830   7.8905   7.8905   8.0183   8.0183   8.0497   8.0497
     8.0916   8.0916   8.1011   8.1011   8.1890   8.1890   8.1929   8.1929
     8.4928   8.4928   8.5162   8.5162   8.5420   8.5420   8.5782   8.5782
     8.6072   8.6072   8.6116   8.6116   8.6549   8.6549   8.6592   8.6592
     8.7043   8.7043   8.7075   8.7075   8.7446   8.7446   8.7457   8.7457
     9.0078   9.0078   9.0099   9.0099   9.1279   9.1280   9.1337   9.1337
     9.1632   9.1633   9.1799   9.1799   9.2461   9.2462   9.2712   9.2712

          k = 0.0000 0.1604 0.0001 ( 80538 PWs)   bands (ev):

   -16.5946 -16.5946 -16.5932 -16.5932 -16.5910 -16.5910 -16.5895 -16.5895
   -16.5659 -16.5659 -16.5655 -16.5655 -16.5638 -16.5638 -16.5633 -16.5633
   -14.5876 -14.5873 -14.5868 -14.5864 -14.5816 -14.5813 -14.5808 -14.5804
   -14.5396 -14.5396 -14.5388 -14.5388 -14.5375 -14.5375 -14.5367 -14.5367
   -13.4604 -13.4604 -13.4596 -13.4596 -13.3361 -13.3361 -13.3354 -13.3354
   -13.2306 -13.2306 -13.2298 -13.2298 -13.2101 -13.2101 -13.2090 -13.2090
   -12.0675 -12.0667 -12.0660 -12.0652 -12.0385 -12.0377 -12.0369 -12.0361
   -11.9970 -11.9970 -11.9962 -11.9961 -11.9855 -11.9855 -11.9847 -11.9847
   -11.9648 -11.9647 -11.9644 -11.9644 -11.9640 -11.9639 -11.9636 -11.9636
   -11.6055 -11.6055 -11.6005 -11.6004 -11.5797 -11.5797 -11.5768 -11.5768
   -11.5669 -11.5668 -11.5651 -11.5650 -11.5367 -11.5367 -11.5328 -11.5327
   -10.5552 -10.5552 -10.5550 -10.5550 -10.3667 -10.3667 -10.3667 -10.3667
   -10.3572 -10.3572 -10.3568 -10.3568 -10.2391 -10.2391 -10.2389 -10.2389
   -10.0664 -10.0664 -10.0540 -10.0540 -10.0408 -10.0408 -10.0266 -10.0266
    -9.9983  -9.9983  -9.9914  -9.9914  -9.9813  -9.9812  -9.9718  -9.9717
    -9.3623  -9.3623  -9.3364  -9.3364  -8.9879  -8.9865  -8.9756  -8.9742
    -8.8823  -8.8808  -8.8682  -8.8667  -8.6436  -8.6425  -8.6400  -8.6388
    -8.5813  -8.5798  -8.5737  -8.5716  -8.5553  -8.5528  -8.5339  -8.5304
    -8.5025  -8.5004  -8.4901  -8.4895  -8.4100  -8.4099  -8.4086  -8.4084
    -8.0636  -8.0635  -8.0570  -8.0569  -8.0542  -8.0541  -8.0431  -8.0430
    -7.9993  -7.9993  -7.9839  -7.9839  -7.9284  -7.9283  -7.9048  -7.9048
    -7.0766  -7.0766  -7.0748  -7.0748  -7.0717  -7.0716  -7.0666  -7.0666
    -6.9685  -6.9685  -6.9653  -6.9653  -6.9629  -6.9629  -6.9584  -6.9584
    -6.5432  -6.5432  -6.5344  -6.5344  -6.4570  -6.4570  -6.4500  -6.4500
    -6.3960  -6.3959  -6.3892  -6.3891  -6.3887  -6.3887  -6.3772  -6.3772
    -5.9127  -5.9127  -5.9093  -5.9093  -5.8268  -5.8267  -5.7911  -5.7910
    -5.7875  -5.7874  -5.7531  -5.7530  -5.7474  -5.7474  -5.7369  -5.7368
    -5.7284  -5.7284  -5.7236  -5.7235  -5.7136  -5.7136  -5.7046  -5.7046
    -5.6150  -5.6149  -5.6030  -5.6029  -5.5931  -5.5930  -5.5813  -5.5813
    -5.0245  -5.0244  -4.9982  -4.9981  -4.9843  -4.9843  -4.9585  -4.9584
    -4.7348  -4.7348  -4.7256  -4.7256  -4.7228  -4.7228  -4.7203  -4.7203
    -4.5775  -4.5774  -4.5709  -4.5709  -4.0296  -4.0295  -4.0081  -4.0081
    -3.9723  -3.9723  -3.9656  -3.9656  -3.9517  -3.9517  -3.9014  -3.9013
    -3.8982  -3.8981  -3.8939  -3.8938  -3.8685  -3.8685  -3.8631  -3.8631
    -3.3393  -3.3392  -3.3304  -3.3303  -3.2987  -3.2987  -3.2929  -3.2928
    -3.2801  -3.2800  -3.2782  -3.2782  -3.2456  -3.2454  -3.2398  -3.2397
    -2.9167  -2.9166  -2.9129  -2.9128  -2.9090  -2.9090  -2.9042  -2.9041
    -2.7890  -2.7889  -2.7801  -2.7801  -2.7346  -2.7344  -2.7285  -2.7285
    -2.6280  -2.6279  -2.6236  -2.6235  -2.4786  -2.4783  -2.4526  -2.4526
    -2.4519  -2.4517  -2.4499  -2.4498  -2.4305  -2.4304  -2.4132  -2.4132
    -2.3783  -2.3782  -2.3690  -2.3688  -2.1708  -2.1708  -2.1626  -2.1625
    -2.0154  -2.0152  -2.0115  -2.0115  -1.8884  -1.8881  -1.8845  -1.8843
    -1.8726  -1.8725  -1.8236  -1.8236  -1.7863  -1.7853  -1.7843  -1.7841
    -1.7163  -1.7163  -1.7133  -1.7132  -1.7047  -1.7042  -1.6870  -1.6869
    -1.6146  -1.6144  -1.5924  -1.5924  -1.5510  -1.5507  -1.5415  -1.5414
    -1.4307  -1.4302  -1.3919  -1.3917  -1.3837  -1.3831  -1.3451  -1.3427
    -1.3316  -1.3306  -1.2648  -1.2640  -1.2125  -1.2082  -1.1977  -1.1958
    -0.9910  -0.9903  -0.9883  -0.9869  -0.9819  -0.9814  -0.9617  -0.9593
    -0.9000  -0.8987  -0.8422  -0.8404  -0.8315  -0.8313  -0.8158  -0.8150
    -0.6582  -0.6551  -0.6473  -0.6410  -0.6141  -0.6008  -0.5647  -0.5641
    -0.4133  -0.4125  -0.3612  -0.3611  -0.3163  -0.3156  -0.2746  -0.2727
    -0.2350  -0.2350  -0.2209  -0.2207  -0.1942  -0.1930  -0.1860  -0.1828
    -0.1289  -0.1256  -0.1249  -0.1215  -0.0798  -0.0727  -0.0703  -0.0695
    -0.0516  -0.0514  -0.0306  -0.0274  -0.0267  -0.0260  -0.0094  -0.0085
     0.0092   0.0095   0.0162   0.0173   0.0247   0.0256   0.0370   0.0383
     0.4355   0.4411   0.4486   0.4531   0.6181   0.6187   0.6455   0.6463
     0.8373   0.8405   0.8460   0.8486   1.0799   1.0914   1.1035   1.1175
     1.1531   1.1540   1.1703   1.1727   1.1901   1.1920   1.1977   1.2016
     1.2568   1.2575   1.2608   1.2622   1.3099   1.3257   1.3776   1.3795
     1.4059   1.4177   1.4330   1.4351   1.4458   1.4527   1.4619   1.4692
     1.4834   1.4848   1.5363   1.5371   1.5531   1.5536   1.5818   1.5829
     1.5946   1.5950   1.6209   1.6226   1.6377   1.6383   1.6957   1.7005
     1.7026   1.7026   1.7328   1.7330   1.7517   1.7525   1.7571   1.7574
     1.7978   1.7985   1.8037   1.8040   1.8266   1.8273   1.8438   1.8450
     1.8519   1.8531   1.8684   1.8741   1.9317   1.9331   1.9631   1.9661
     1.9729   1.9776   1.9780   1.9794   2.0034   2.0041   2.0337   2.0377
     2.0440   2.0452   2.0543   2.0553   2.0870   2.0873   2.0975   2.0980
     2.1046   2.1061   2.1335   2.1339   2.1488   2.1497   2.1536   2.1539
     2.1873   2.1887   2.2242   2.2245   2.2785   2.2789   2.2965   2.2981
     2.4211   2.4214   2.5251   2.5251   2.8528   2.8534   2.9124   2.9133
     4.4391   4.4406   4.6548   4.6558   5.5584   5.5598   5.7473   5.7489
     6.1249   6.1271   6.2239   6.2279   6.2834   6.2876   6.2993   6.3108
     6.4542   6.4571   6.4668   6.4677   6.5932   6.5996   6.6161   6.6211
     6.6417   6.6496   6.6569   6.6811   6.7446   6.7571   6.8180   6.8219
     6.8288   6.8378   6.8492   6.8502   6.8635   6.8740   6.8982   6.9040
     6.9103   6.9120   6.9669   6.9671   7.0654   7.0672   7.0714   7.0716
     7.2407   7.2613   7.3017   7.3126   7.7268   7.7358   7.8018   7.8075
     7.8791   7.8895   7.8988   7.9080   7.9628   7.9850   8.0194   8.0276
     8.0316   8.0457   8.0788   8.0804   8.1710   8.1760   8.1987   8.2012
     8.3071   8.3101   8.3776   8.3802   8.4415   8.4421   8.4988   8.5034
     8.5512   8.5654   8.6272   8.6603   8.6754   8.6794   8.6888   8.7073
     8.7983   8.7994   8.8124   8.8224   8.8619   8.8677   8.8801   8.8811
     8.9076   8.9217   8.9435   8.9452   8.9944   8.9973   9.0208   9.0230
     9.0338   9.0464   9.0626   9.0681   9.1399   9.1663   9.1988   9.2083

          k = 0.0000 0.1604-0.1557 ( 80504 PWs)   bands (ev):

   -16.5946 -16.5946 -16.5932 -16.5932 -16.5910 -16.5910 -16.5895 -16.5895
   -16.5659 -16.5659 -16.5655 -16.5655 -16.5638 -16.5638 -16.5633 -16.5633
   -14.5876 -14.5873 -14.5868 -14.5864 -14.5816 -14.5813 -14.5808 -14.5804
   -14.5396 -14.5396 -14.5388 -14.5388 -14.5375 -14.5375 -14.5367 -14.5367
   -13.4600 -13.4600 -13.4600 -13.4600 -13.3357 -13.3357 -13.3357 -13.3357
   -13.2303 -13.2303 -13.2301 -13.2301 -13.2096 -13.2096 -13.2094 -13.2094
   -12.0675 -12.0667 -12.0660 -12.0652 -12.0385 -12.0377 -12.0369 -12.0361
   -11.9970 -11.9970 -11.9962 -11.9961 -11.9855 -11.9855 -11.9847 -11.9847
   -11.9648 -11.9647 -11.9644 -11.9644 -11.9640 -11.9639 -11.9636 -11.9636
   -11.6033 -11.6033 -11.6032 -11.6032 -11.5778 -11.5778 -11.5777 -11.5776
   -11.5664 -11.5664 -11.5663 -11.5663 -11.5347 -11.5347 -11.5345 -11.5345
   -10.5551 -10.5551 -10.5551 -10.5551 -10.3667 -10.3667 -10.3667 -10.3667
   -10.3571 -10.3571 -10.3569 -10.3569 -10.2391 -10.2391 -10.2389 -10.2389
   -10.0619 -10.0619 -10.0615 -10.0615 -10.0323 -10.0323 -10.0320 -10.0320
    -9.9957  -9.9956  -9.9953  -9.9953  -9.9761  -9.9761  -9.9758  -9.9758
    -9.3508  -9.3498  -9.3492  -9.3482  -8.9875  -8.9860  -8.9763  -8.9748
    -8.8822  -8.8807  -8.8681  -8.8666  -8.6434  -8.6420  -8.6406  -8.6392
    -8.5770  -8.5760  -8.5751  -8.5741  -8.5448  -8.5438  -8.5417  -8.5407
    -8.4985  -8.4972  -8.4970  -8.4957  -8.4099  -8.4097  -8.4085  -8.4083
    -8.0597  -8.0595  -8.0595  -8.0594  -8.0499  -8.0499  -8.0498  -8.0497
    -7.9922  -7.9921  -7.9920  -7.9919  -7.9155  -7.9155  -7.9154  -7.9154
    -7.0752  -7.0752  -7.0744  -7.0744  -7.0704  -7.0704  -7.0696  -7.0696
    -6.9678  -6.9678  -6.9669  -6.9669  -6.9606  -6.9606  -6.9598  -6.9598
    -6.5390  -6.5390  -6.5389  -6.5389  -6.4537  -6.4537  -6.4536  -6.4536
    -6.3925  -6.3924  -6.3923  -6.3923  -6.3830  -6.3830  -6.3827  -6.3827
    -5.9110  -5.9110  -5.9109  -5.9109  -5.8157  -5.8157  -5.8152  -5.8151
    -5.7646  -5.7645  -5.7644  -5.7644  -5.7423  -5.7422  -5.7420  -5.7419
    -5.7260  -5.7259  -5.7253  -5.7253  -5.7089  -5.7089  -5.7086  -5.7086
    -5.6108  -5.6107  -5.6102  -5.6101  -5.5861  -5.5860  -5.5854  -5.5853
    -5.0118  -5.0118  -5.0117  -5.0116  -4.9711  -4.9702  -4.9702  -4.9693
    -4.7423  -4.7423  -4.7420  -4.7420  -4.7106  -4.7106  -4.7104  -4.7104
    -4.5740  -4.5740  -4.5739  -4.5738  -4.0215  -4.0213  -4.0209  -4.0207
    -3.9699  -3.9698  -3.9695  -3.9695  -3.9263  -3.9257  -3.9250  -3.9243
    -3.8952  -3.8951  -3.8947  -3.8946  -3.8652  -3.8651  -3.8649  -3.8649
    -3.3351  -3.3351  -3.3349  -3.3349  -3.2963  -3.2963  -3.2961  -3.2961
    -3.2786  -3.2786  -3.2785  -3.2784  -3.2428  -3.2428  -3.2427  -3.2426
    -2.9148  -2.9148  -2.9146  -2.9145  -2.9067  -2.9066  -2.9066  -2.9065
    -2.7847  -2.7846  -2.7845  -2.7844  -2.7314  -2.7314  -2.7313  -2.7312
    -2.6259  -2.6258  -2.6258  -2.6258  -2.4690  -2.4688  -2.4685  -2.4683
    -2.4501  -2.4501  -2.4500  -2.4500  -2.4199  -2.4197  -2.4196  -2.4194
    -2.3738  -2.3737  -2.3733  -2.3732  -2.1668  -2.1667  -2.1667  -2.1666
    -2.0137  -2.0137  -2.0135  -2.0135  -1.8877  -1.8876  -1.8872  -1.8871
    -1.8461  -1.8460  -1.8459  -1.8458  -1.7734  -1.7730  -1.7724  -1.7719
    -1.7380  -1.7379  -1.7375  -1.7373  -1.6897  -1.6897  -1.6893  -1.6892
    -1.6058  -1.6057  -1.6053  -1.6052  -1.5454  -1.5453  -1.5451  -1.5449
    -1.3973  -1.3970  -1.3955  -1.3952  -1.3809  -1.3807  -1.3795  -1.3793
    -1.2919  -1.2917  -1.2910  -1.2907  -1.2064  -1.2063  -1.2026  -1.2025
    -0.9870  -0.9869  -0.9858  -0.9857  -0.9818  -0.9815  -0.9736  -0.9733
    -0.8718  -0.8718  -0.8638  -0.8637  -0.8225  -0.8223  -0.8204  -0.8203
    -0.6595  -0.6594  -0.6353  -0.6351  -0.6154  -0.6151  -0.5602  -0.5597
    -0.4188  -0.4183  -0.3738  -0.3734  -0.2957  -0.2957  -0.2856  -0.2856
    -0.2320  -0.2317  -0.2273  -0.2269  -0.1767  -0.1767  -0.1617  -0.1614
    -0.1387  -0.1385  -0.1309  -0.1308  -0.0709  -0.0706  -0.0653  -0.0651
    -0.0562  -0.0561  -0.0529  -0.0528  -0.0148  -0.0147  -0.0145  -0.0144
     0.0101   0.0105   0.0114   0.0118   0.0300   0.0301   0.0350   0.0351
     0.4380   0.4387   0.4518   0.4525   0.6241   0.6251   0.6380   0.6391
     0.8438   0.8442   0.8473   0.8476   1.0914   1.0922   1.1362   1.1365
     1.1499   1.1501   1.1567   1.1572   1.1904   1.1910   1.1998   1.2004
     1.2382   1.2383   1.2439   1.2441   1.3526   1.3532   1.3733   1.3736
     1.4167   1.4172   1.4200   1.4204   1.4488   1.4490   1.4642   1.4644
     1.4999   1.5002   1.5049   1.5052   1.5650   1.5654   1.5658   1.5663
     1.5952   1.5962   1.5977   1.5987   1.6702   1.6704   1.6739   1.6741
     1.7280   1.7287   1.7298   1.7306   1.7575   1.7580   1.7587   1.7591
     1.7943   1.7945   1.7952   1.7954   1.8293   1.8295   1.8310   1.8313
     1.8913   1.8921   1.8935   1.8942   1.9504   1.9506   1.9561   1.9563
     1.9721   1.9730   1.9740   1.9748   2.0146   2.0149   2.0168   2.0170
     2.0253   2.0255   2.0273   2.0275   2.0972   2.0980   2.0985   2.0992
     2.1178   2.1183   2.1196   2.1201   2.1543   2.1547   2.1565   2.1569
     2.2054   2.2056   2.2062   2.2064   2.2770   2.2775   2.2777   2.2783
     2.4832   2.4834   2.4840   2.4841   2.8579   2.8586   2.9064   2.9071
     4.4395   4.4405   4.6547   4.6557   5.5585   5.5597   5.7474   5.7488
     6.1620   6.1621   6.1836   6.1838   6.2784   6.2785   6.3242   6.3243
     6.4218   6.4219   6.5115   6.5116   6.5634   6.5636   6.6121   6.6123
     6.6428   6.6432   6.6745   6.6748   6.7823   6.7825   6.8107   6.8111
     6.8333   6.8337   6.8458   6.8466   6.8821   6.8826   6.9006   6.9008
     6.9081   6.9083   6.9582   6.9583   7.0684   7.0684   7.0702   7.0703
     7.2676   7.2682   7.2874   7.2880   7.7378   7.7387   7.8087   7.8094
     7.8501   7.8513   7.9166   7.9174   7.9429   7.9435   7.9886   7.9896
     8.1145   8.1149   8.1399   8.1400   8.1652   8.1663   8.2139   8.2143
     8.2404   8.2413   8.3754   8.3772   8.4567   8.4577   8.4617   8.4625
     8.5797   8.5800   8.6110   8.6117   8.6716   8.6722   8.7266   8.7266
     8.8044   8.8048   8.8321   8.8325   8.8567   8.8571   8.8913   8.8916
     8.9170   8.9174   8.9451   8.9456   8.9985   8.9994   9.0078   9.0082
     9.0412   9.0418   9.0519   9.0524   9.1608   9.1619   9.1818   9.1824

          k = 0.0000 0.3208 0.0001 ( 80546 PWs)   bands (ev):

   -16.5943 -16.5943 -16.5929 -16.5929 -16.5909 -16.5909 -16.5894 -16.5894
   -16.5660 -16.5660 -16.5656 -16.5656 -16.5640 -16.5640 -16.5635 -16.5635
   -14.5865 -14.5859 -14.5857 -14.5851 -14.5830 -14.5824 -14.5821 -14.5815
   -14.5392 -14.5391 -14.5384 -14.5383 -14.5379 -14.5379 -14.5371 -14.5371
   -13.4365 -13.4365 -13.4357 -13.4357 -13.3655 -13.3655 -13.3647 -13.3647
   -13.2248 -13.2248 -13.2240 -13.2240 -13.2123 -13.2123 -13.2113 -13.2113
   -12.0623 -12.0614 -12.0597 -12.0588 -12.0452 -12.0443 -12.0425 -12.0416
   -11.9945 -11.9945 -11.9937 -11.9937 -11.9878 -11.9877 -11.9869 -11.9869
   -11.9648 -11.9647 -11.9644 -11.9644 -11.9640 -11.9639 -11.9636 -11.9636
   -11.6001 -11.6001 -11.5952 -11.5951 -11.5841 -11.5841 -11.5798 -11.5798
   -11.5655 -11.5654 -11.5613 -11.5612 -11.5462 -11.5462 -11.5420 -11.5420
   -10.5134 -10.5133 -10.5132 -10.5132 -10.4014 -10.4014 -10.4010 -10.4010
   -10.3398 -10.3398 -10.3394 -10.3394 -10.2659 -10.2659 -10.2650 -10.2650
   -10.0578 -10.0578 -10.0495 -10.0495 -10.0386 -10.0386 -10.0329 -10.0329
   -10.0046 -10.0046  -9.9971  -9.9970  -9.9894  -9.9894  -9.9771  -9.9770
    -9.2951  -9.2950  -9.2745  -9.2744  -9.0868  -9.0859  -9.0751  -9.0742
    -8.8312  -8.8297  -8.8207  -8.8192  -8.6963  -8.6950  -8.6906  -8.6893
    -8.5870  -8.5863  -8.5795  -8.5792  -8.5229  -8.5226  -8.5139  -8.5122
    -8.4674  -8.4665  -8.4616  -8.4615  -8.4056  -8.4052  -8.4030  -8.4028
    -8.0492  -8.0492  -8.0466  -8.0464  -8.0428  -8.0427  -8.0316  -8.0315
    -7.9844  -7.9843  -7.9762  -7.9761  -7.9397  -7.9397  -7.9191  -7.9190
    -7.0796  -7.0795  -7.0758  -7.0758  -7.0726  -7.0726  -7.0711  -7.0711
    -6.9689  -6.9689  -6.9645  -6.9645  -6.9642  -6.9642  -6.9617  -6.9617
    -6.5207  -6.5207  -6.5124  -6.5124  -6.4724  -6.4723  -6.4638  -6.4638
    -6.3961  -6.3961  -6.3897  -6.3896  -6.3837  -6.3837  -6.3754  -6.3753
    -5.8903  -5.8903  -5.8781  -5.8781  -5.8411  -5.8410  -5.8075  -5.8074
    -5.7743  -5.7743  -5.7584  -5.7584  -5.7564  -5.7563  -5.7467  -5.7467
    -5.7426  -5.7425  -5.7363  -5.7363  -5.7354  -5.7353  -5.7264  -5.7263
    -5.6202  -5.6201  -5.6125  -5.6125  -5.6006  -5.6005  -5.5929  -5.5928
    -4.9815  -4.9815  -4.9461  -4.9460  -4.8783  -4.8783  -4.7923  -4.7923
    -4.7822  -4.7821  -4.7176  -4.7175  -4.6948  -4.6948  -4.6846  -4.6846
    -4.6038  -4.6038  -4.5950  -4.5950  -4.2023  -4.2013  -4.1987  -4.1977
    -3.9911  -3.9911  -3.9745  -3.9744  -3.9681  -3.9681  -3.9651  -3.9650
    -3.9337  -3.9336  -3.9295  -3.9295  -3.9067  -3.9067  -3.9045  -3.9044
    -3.3327  -3.3325  -3.3241  -3.3239  -3.3017  -3.3014  -3.2976  -3.2975
    -3.2934  -3.2934  -3.2910  -3.2910  -3.2622  -3.2621  -3.2569  -3.2569
    -2.9179  -2.9179  -2.9162  -2.9162  -2.9151  -2.9149  -2.9103  -2.9102
    -2.7657  -2.7657  -2.7618  -2.7618  -2.7371  -2.7371  -2.7322  -2.7321
    -2.5805  -2.5803  -2.5687  -2.5687  -2.4915  -2.4911  -2.4682  -2.4681
    -2.4367  -2.4365  -2.4215  -2.4214  -2.4046  -2.4044  -2.3946  -2.3946
    -2.3645  -2.3644  -2.3612  -2.3611  -2.1449  -2.1448  -2.1400  -2.1399
    -2.1113  -2.1113  -2.1102  -2.1100  -1.9767  -1.9766  -1.9735  -1.9734
    -1.8311  -1.8307  -1.7942  -1.7937  -1.7930  -1.7928  -1.7689  -1.7686
    -1.7340  -1.7339  -1.7308  -1.7307  -1.6975  -1.6970  -1.6922  -1.6920
    -1.5641  -1.5640  -1.5586  -1.5585  -1.5508  -1.5506  -1.5405  -1.5404
    -1.3690  -1.3682  -1.3227  -1.3227  -1.3136  -1.3116  -1.3023  -1.3018
    -1.2915  -1.2914  -1.2539  -1.2532  -1.1875  -1.1855  -1.1788  -1.1784
    -0.9591  -0.9580  -0.9467  -0.9457  -0.9453  -0.9451  -0.9254  -0.9223
    -0.8772  -0.8769  -0.8690  -0.8683  -0.8493  -0.8491  -0.8431  -0.8418
    -0.6277  -0.6271  -0.6108  -0.6097  -0.5147  -0.5140  -0.4565  -0.4563
    -0.3475  -0.3396  -0.3185  -0.3180  -0.2347  -0.2323  -0.2012  -0.1980
    -0.1919  -0.1851  -0.1746  -0.1637  -0.1621  -0.1550  -0.1137  -0.1032
    -0.1006  -0.0918  -0.0908  -0.0881  -0.0550  -0.0546  -0.0540  -0.0506
    -0.0428  -0.0412  -0.0321  -0.0261  -0.0135  -0.0128  -0.0042  -0.0033
     0.0072   0.0076   0.0087   0.0093   0.0427   0.0437   0.1018   0.1036
     0.4028   0.4054   0.4720   0.4753   0.4928   0.4983   0.5809   0.5842
     0.6610   0.6668   0.6993   0.7081   0.8971   0.9000   0.9581   0.9588
     1.1572   1.1595   1.1619   1.1711   1.1935   1.1940   1.2213   1.2221
     1.2254   1.2304   1.2404   1.2411   1.2813   1.2821   1.2896   1.2908
     1.3522   1.3531   1.4037   1.4051   1.4486   1.4490   1.4581   1.4587
     1.4713   1.4716   1.5044   1.5066   1.5292   1.5321   1.5481   1.5493
     1.5865   1.5912   1.6001   1.6034   1.6742   1.6750   1.7013   1.7022
     1.7090   1.7107   1.7151   1.7155   1.7593   1.7600   1.7616   1.7622
     1.7712   1.7725   1.8017   1.8025   1.8353   1.8357   1.8359   1.8386
     1.8689   1.8690   1.8877   1.8889   1.9031   1.9041   1.9573   1.9606
     1.9645   1.9654   1.9679   1.9681   1.9842   1.9869   2.0254   2.0279
     2.0301   2.0319   2.0376   2.0378   2.0391   2.0394   2.0466   2.0487
     2.0855   2.0862   2.1371   2.1385   2.1727   2.1729   2.1856   2.1872
     2.1975   2.1977   2.2003   2.2014   2.2442   2.2460   2.3196   2.3199
     2.4799   2.4802   2.4963   2.4967   2.6199   2.6207   2.6687   2.6698
     5.0079   5.0094   5.2409   5.2418   6.0344   6.0375   6.1003   6.1032
     6.1171   6.1200   6.2415   6.2462   6.2562   6.2639   6.3192   6.3265
     6.3504   6.3587   6.3924   6.4034   6.6018   6.6081   6.6292   6.6322
     6.6479   6.6707   6.6805   6.6932   6.7235   6.7259   6.7305   6.7352
     6.8530   6.8555   6.8815   6.8825   6.9186   6.9267   6.9446   6.9509
     6.9721   6.9730   7.0076   7.0230   7.0763   7.0790   7.0987   7.1001
     7.2905   7.3090   7.3777   7.3871   7.4076   7.4144   7.5947   7.5982
     7.7525   7.7694   7.9093   7.9211   7.9945   7.9949   8.0113   8.0141
     8.0606   8.0706   8.1260   8.1361   8.1386   8.1403   8.1954   8.2006
     8.2162   8.2204   8.2906   8.2937   8.3015   8.3145   8.3448   8.3473
     8.4671   8.4673   8.4712   8.4749   8.5268   8.5313   8.5731   8.5762
     8.6440   8.6474   8.7132   8.7165   8.7455   8.7475   8.7749   8.7822
     8.7860   8.7873   8.8703   8.8715   8.9755   8.9851   8.9857   8.9880
     9.0363   9.0408   9.0562   9.0635   9.0935   9.1009   9.1373   9.1479

          k = 0.0000 0.3208-0.1556 ( 80536 PWs)   bands (ev):

   -16.5943 -16.5943 -16.5929 -16.5929 -16.5909 -16.5909 -16.5894 -16.5894
   -16.5660 -16.5660 -16.5656 -16.5656 -16.5640 -16.5640 -16.5635 -16.5635
   -14.5865 -14.5859 -14.5857 -14.5851 -14.5830 -14.5824 -14.5821 -14.5815
   -14.5392 -14.5391 -14.5384 -14.5383 -14.5379 -14.5379 -14.5371 -14.5371
   -13.4361 -13.4361 -13.4361 -13.4361 -13.3651 -13.3651 -13.3651 -13.3651
   -13.2245 -13.2245 -13.2243 -13.2243 -13.2119 -13.2119 -13.2117 -13.2117
   -12.0623 -12.0614 -12.0597 -12.0588 -12.0452 -12.0443 -12.0425 -12.0416
   -11.9945 -11.9945 -11.9937 -11.9937 -11.9878 -11.9877 -11.9869 -11.9869
   -11.9648 -11.9647 -11.9644 -11.9644 -11.9640 -11.9639 -11.9636 -11.9636
   -11.5980 -11.5980 -11.5979 -11.5979 -11.5818 -11.5818 -11.5818 -11.5818
   -11.5634 -11.5634 -11.5633 -11.5632 -11.5441 -11.5441 -11.5439 -11.5439
   -10.5133 -10.5133 -10.5133 -10.5133 -10.4012 -10.4012 -10.4011 -10.4011
   -10.3396 -10.3396 -10.3396 -10.3396 -10.2655 -10.2655 -10.2654 -10.2654
   -10.0545 -10.0545 -10.0542 -10.0542 -10.0352 -10.0352 -10.0349 -10.0349
   -10.0024 -10.0024 -10.0016 -10.0016  -9.9824  -9.9824  -9.9817  -9.9817
    -9.2868  -9.2852  -9.2846  -9.2830  -9.0847  -9.0831  -9.0781  -9.0766
    -8.8312  -8.8297  -8.8206  -8.8191  -8.6962  -8.6948  -8.6908  -8.6894
    -8.5821  -8.5815  -8.5809  -8.5803  -8.5208  -8.5199  -8.5195  -8.5186
    -8.4653  -8.4647  -8.4637  -8.4631  -8.4051  -8.4048  -8.4036  -8.4033
    -8.0453  -8.0452  -8.0452  -8.0451  -8.0405  -8.0404  -8.0403  -8.0403
    -7.9805  -7.9804  -7.9803  -7.9802  -7.9286  -7.9285  -7.9284  -7.9284
    -7.0770  -7.0770  -7.0764  -7.0764  -7.0731  -7.0731  -7.0725  -7.0725
    -6.9680  -6.9680  -6.9672  -6.9672  -6.9625  -6.9625  -6.9617  -6.9617
    -6.5168  -6.5168  -6.5167  -6.5167  -6.4685  -6.4684  -6.4683  -6.4683
    -6.3903  -6.3903  -6.3901  -6.3901  -6.3819  -6.3819  -6.3817  -6.3817
    -5.8847  -5.8847  -5.8846  -5.8846  -5.8272  -5.8271  -5.8268  -5.8267
    -5.7616  -5.7615  -5.7614  -5.7613  -5.7523  -5.7523  -5.7517  -5.7516
    -5.7428  -5.7427  -5.7422  -5.7421  -5.7293  -5.7293  -5.7289  -5.7289
    -5.6172  -5.6172  -5.6167  -5.6167  -5.5964  -5.5964  -5.5958  -5.5958
    -4.9650  -4.9650  -4.9649  -4.9649  -4.8470  -4.8464  -4.8462  -4.8457
    -4.7415  -4.7410  -4.7403  -4.7398  -4.6877  -4.6876  -4.6875  -4.6875
    -4.5985  -4.5985  -4.5984  -4.5984  -4.2020  -4.2009  -4.1988  -4.1977
    -3.9828  -3.9827  -3.9826  -3.9826  -3.9671  -3.9671  -3.9670  -3.9669
    -3.9315  -3.9314  -3.9313  -3.9313  -3.9056  -3.9055  -3.9054  -3.9054
    -3.3286  -3.3285  -3.3284  -3.3284  -3.3002  -3.3001  -3.2999  -3.2998
    -3.2914  -3.2914  -3.2911  -3.2911  -3.2599  -3.2599  -3.2598  -3.2598
    -2.9210  -2.9210  -2.9208  -2.9208  -2.9088  -2.9087  -2.9086  -2.9085
    -2.7640  -2.7640  -2.7638  -2.7638  -2.7345  -2.7344  -2.7343  -2.7342
    -2.5753  -2.5752  -2.5751  -2.5750  -2.4795  -2.4794  -2.4793  -2.4791
    -2.4293  -2.4293  -2.4291  -2.4291  -2.3998  -2.3997  -2.3996  -2.3994
    -2.3627  -2.3627  -2.3626  -2.3626  -2.1424  -2.1423  -2.1423  -2.1423
    -2.1108  -2.1108  -2.1107  -2.1106  -1.9754  -1.9754  -1.9751  -1.9751
    -1.8159  -1.8158  -1.8156  -1.8155  -1.7681  -1.7678  -1.7674  -1.7671
    -1.7465  -1.7464  -1.7460  -1.7459  -1.6921  -1.6921  -1.6919  -1.6919
    -1.5624  -1.5624  -1.5621  -1.5620  -1.5455  -1.5454  -1.5451  -1.5450
    -1.3461  -1.3457  -1.3446  -1.3442  -1.3039  -1.3038  -1.3030  -1.3030
    -1.2750  -1.2749  -1.2734  -1.2733  -1.1844  -1.1843  -1.1828  -1.1826
    -0.9528  -0.9528  -0.9520  -0.9519  -0.9371  -0.9370  -0.9333  -0.9332
    -0.8704  -0.8702  -0.8674  -0.8672  -0.8499  -0.8496  -0.8488  -0.8486
    -0.6207  -0.6206  -0.6172  -0.6171  -0.4959  -0.4957  -0.4794  -0.4793
    -0.3323  -0.3315  -0.3229  -0.3222  -0.2255  -0.2254  -0.2170  -0.2169
    -0.1917  -0.1916  -0.1649  -0.1647  -0.1391  -0.1390  -0.1276  -0.1275
    -0.0998  -0.0997  -0.0772  -0.0769  -0.0596  -0.0593  -0.0520  -0.0519
    -0.0322  -0.0317  -0.0291  -0.0286  -0.0224  -0.0222  -0.0004   0.0002
     0.0054   0.0056   0.0101   0.0108   0.0420   0.0429   0.0987   0.0997
     0.4043   0.4051   0.4715   0.4721   0.4979   0.4989   0.5820   0.5832
     0.6644   0.6656   0.7032   0.7046   0.8982   0.8986   0.9580   0.9583
     1.1502   1.1509   1.1706   1.1708   1.1947   1.1951   1.2123   1.2129
     1.2380   1.2386   1.2432   1.2436   1.2693   1.2694   1.2761   1.2762
     1.4080   1.4088   1.4119   1.4127   1.4505   1.4508   1.4519   1.4523
     1.4722   1.4725   1.4763   1.4767   1.5438   1.5443   1.5464   1.5469
     1.5623   1.5625   1.5635   1.5636   1.6950   1.6958   1.6969   1.6977
     1.7190   1.7197   1.7202   1.7210   1.7686   1.7691   1.7704   1.7709
     1.8013   1.8017   1.8019   1.8023   1.8405   1.8409   1.8412   1.8415
     1.8547   1.8555   1.8581   1.8590   1.9424   1.9425   1.9444   1.9445
     1.9603   1.9609   1.9635   1.9641   1.9898   1.9900   1.9908   1.9910
     2.0244   2.0245   2.0264   2.0265   2.0594   2.0597   2.0605   2.0607
     2.0931   2.0932   2.0935   2.0936   2.1915   2.1922   2.1929   2.1936
     2.2164   2.2166   2.2170   2.2172   2.2677   2.2682   2.2683   2.2688
     2.4909   2.4911   2.4927   2.4928   2.6340   2.6344   2.6536   2.6539
     5.0084   5.0094   5.2409   5.2417   6.0534   6.0539   6.0817   6.0820
     6.1136   6.1149   6.2389   6.2390   6.2820   6.2821   6.3149   6.3152
     6.3532   6.3534   6.4010   6.4019   6.6038   6.6040   6.6147   6.6151
     6.6550   6.6553   6.6864   6.6868   6.7304   6.7305   6.7357   6.7360
     6.8614   6.8621   6.8839   6.8844   6.9231   6.9233   6.9589   6.9592
     6.9662   6.9663   7.0067   7.0068   7.0887   7.0888   7.0900   7.0901
     7.3027   7.3035   7.3781   7.3786   7.4105   7.4115   7.5957   7.5969
     7.7613   7.7617   7.9295   7.9299   7.9572   7.9586   8.0391   8.0391
     8.0452   8.0453   8.0836   8.0849   8.1833   8.1835   8.1986   8.1987
     8.2743   8.2747   8.2873   8.2880   8.3202   8.3207   8.3253   8.3259
     8.4586   8.4591   8.4652   8.4656   8.5348   8.5351   8.5381   8.5383
     8.6604   8.6606   8.6643   8.6646   8.7846   8.7851   8.7875   8.7880
     8.8456   8.8459   8.8487   8.8491   8.9655   8.9656   8.9706   8.9706
     9.0439   9.0443   9.0503   9.0508   9.0863   9.0867   9.1073   9.1076

          k = 0.0000-0.4812-0.0002 ( 80544 PWs)   bands (ev):

   -16.5942 -16.5942 -16.5927 -16.5927 -16.5908 -16.5908 -16.5893 -16.5893
   -16.5661 -16.5661 -16.5657 -16.5657 -16.5641 -16.5641 -16.5636 -16.5636
   -14.5850 -14.5850 -14.5842 -14.5842 -14.5839 -14.5839 -14.5830 -14.5830
   -14.5387 -14.5387 -14.5384 -14.5384 -14.5379 -14.5379 -14.5376 -14.5376
   -13.4024 -13.4024 -13.4023 -13.4023 -13.4015 -13.4015 -13.4014 -13.4014
   -13.2178 -13.2178 -13.2177 -13.2177 -13.2169 -13.2169 -13.2168 -13.2168
   -12.0551 -12.0551 -12.0542 -12.0542 -12.0499 -12.0499 -12.0490 -12.0490
   -11.9920 -11.9920 -11.9911 -11.9911 -11.9902 -11.9902 -11.9894 -11.9894
   -11.9648 -11.9648 -11.9644 -11.9644 -11.9640 -11.9640 -11.9636 -11.9636
   -11.5922 -11.5922 -11.5921 -11.5921 -11.5874 -11.5874 -11.5873 -11.5873
   -11.5574 -11.5574 -11.5571 -11.5571 -11.5529 -11.5529 -11.5527 -11.5527
   -10.4575 -10.4575 -10.4574 -10.4574 -10.4574 -10.4574 -10.4572 -10.4572
   -10.3034 -10.3034 -10.3034 -10.3034 -10.3023 -10.3023 -10.3023 -10.3023
   -10.0444 -10.0444 -10.0438 -10.0438 -10.0417 -10.0417 -10.0411 -10.0411
   -10.0079 -10.0079 -10.0071 -10.0071  -9.9848  -9.9848  -9.9840  -9.9840
    -9.2003  -9.2003  -9.1988  -9.1988  -9.1798  -9.1798  -9.1792  -9.1792
    -8.7674  -8.7674  -8.7655  -8.7655  -8.7548  -8.7548  -8.7537  -8.7537
    -8.5862  -8.5862  -8.5850  -8.5850  -8.5083  -8.5083  -8.5073  -8.5073
    -8.4475  -8.4475  -8.4457  -8.4457  -8.4039  -8.4039  -8.4024  -8.4024
    -8.0450  -8.0450  -8.0447  -8.0447  -8.0361  -8.0361  -8.0359  -8.0359
    -7.9580  -7.9580  -7.9579  -7.9579  -7.9450  -7.9450  -7.9447  -7.9447
    -7.0787  -7.0787  -7.0782  -7.0782  -7.0731  -7.0731  -7.0726  -7.0726
    -6.9669  -6.9669  -6.9663  -6.9663  -6.9649  -6.9649  -6.9644  -6.9644
    -6.4945  -6.4945  -6.4943  -6.4943  -6.4866  -6.4866  -6.4863  -6.4863
    -6.3930  -6.3930  -6.3929  -6.3929  -6.3784  -6.3784  -6.3783  -6.3783
    -5.8637  -5.8637  -5.8635  -5.8635  -5.8401  -5.8401  -5.8397  -5.8397
    -5.7696  -5.7696  -5.7688  -5.7688  -5.7588  -5.7588  -5.7586  -5.7586
    -5.7467  -5.7467  -5.7463  -5.7463  -5.7348  -5.7348  -5.7345  -5.7345
    -5.6197  -5.6197  -5.6192  -5.6192  -5.6005  -5.6005  -5.5999  -5.5999
    -4.9171  -4.9171  -4.9168  -4.9168  -4.8745  -4.8745  -4.8743  -4.8743
    -4.6491  -4.6491  -4.6489  -4.6489  -4.6383  -4.6383  -4.6381  -4.6381
    -4.5469  -4.5469  -4.5460  -4.5460  -4.4482  -4.4482  -4.4472  -4.4472
    -3.9663  -3.9663  -3.9661  -3.9661  -3.9592  -3.9592  -3.9590  -3.9590
    -3.9469  -3.9469  -3.9467  -3.9467  -3.9462  -3.9462  -3.9460  -3.9460
    -3.3204  -3.3204  -3.3200  -3.3200  -3.3138  -3.3138  -3.3136  -3.3136
    -3.2818  -3.2818  -3.2815  -3.2815  -3.2778  -3.2778  -3.2775  -3.2775
    -2.9171  -2.9171  -2.9170  -2.9170  -2.9125  -2.9125  -2.9122  -2.9122
    -2.7519  -2.7519  -2.7515  -2.7515  -2.7464  -2.7464  -2.7461  -2.7461
    -2.5254  -2.5254  -2.5246  -2.5246  -2.5121  -2.5121  -2.5115  -2.5115
    -2.4274  -2.4274  -2.4271  -2.4271  -2.4174  -2.4174  -2.4170  -2.4170
    -2.2375  -2.2375  -2.2373  -2.2373  -2.2343  -2.2343  -2.2342  -2.2342
    -2.0759  -2.0759  -2.0757  -2.0757  -2.0686  -2.0686  -2.0685  -2.0685
    -1.8086  -1.8086  -1.8081  -1.8081  -1.7655  -1.7655  -1.7653  -1.7653
    -1.7517  -1.7517  -1.7514  -1.7514  -1.6935  -1.6935  -1.6931  -1.6931
    -1.5492  -1.5492  -1.5491  -1.5491  -1.5390  -1.5390  -1.5387  -1.5387
    -1.3103  -1.3103  -1.3097  -1.3097  -1.3007  -1.3007  -1.2998  -1.2998
    -1.2073  -1.2073  -1.2071  -1.2071  -1.1988  -1.1988  -1.1986  -1.1986
    -0.9226  -0.9226  -0.9208  -0.9208  -0.9083  -0.9083  -0.9080  -0.9080
    -0.8902  -0.8902  -0.8879  -0.8879  -0.8670  -0.8670  -0.8665  -0.8665
    -0.5858  -0.5858  -0.5849  -0.5849  -0.5555  -0.5555  -0.5552  -0.5552
    -0.2302  -0.2302  -0.2291  -0.2291  -0.1724  -0.1724  -0.1704  -0.1704
    -0.1435  -0.1435  -0.1271  -0.1271  -0.0983  -0.0983  -0.0943  -0.0943
    -0.0900  -0.0900  -0.0648  -0.0648  -0.0566  -0.0566  -0.0541  -0.0541
    -0.0214  -0.0214  -0.0154  -0.0154   0.0024   0.0024   0.0033   0.0033
     0.0307   0.0307   0.0357   0.0357   0.1440   0.1440   0.1586   0.1586
     0.4289   0.4289   0.4448   0.4448   0.5306   0.5306   0.5375   0.5375
     0.5483   0.5483   0.5552   0.5552   0.7225   0.7225   0.7234   0.7234
     1.1423   1.1423   1.1498   1.1498   1.2169   1.2169   1.2233   1.2233
     1.2305   1.2305   1.2346   1.2346   1.2801   1.2801   1.2824   1.2824
     1.3560   1.3560   1.3581   1.3581   1.3885   1.3885   1.3902   1.3902
     1.4958   1.4958   1.4976   1.4976   1.5013   1.5013   1.5023   1.5023
     1.6367   1.6367   1.6377   1.6377   1.6800   1.6800   1.6826   1.6826
     1.7478   1.7478   1.7489   1.7489   1.7608   1.7608   1.7617   1.7617
     1.7994   1.7994   1.8000   1.8000   1.8265   1.8265   1.8284   1.8284
     1.8758   1.8758   1.8765   1.8765   1.9273   1.9273   1.9278   1.9278
     1.9571   1.9571   1.9583   1.9583   1.9880   1.9880   1.9890   1.9890
     2.0242   2.0242   2.0268   2.0268   2.0504   2.0504   2.0509   2.0509
     2.0600   2.0600   2.0635   2.0635   2.1921   2.1921   2.1926   2.1926
     2.2083   2.2083   2.2097   2.2097   2.2966   2.2966   2.2968   2.2968
     2.4951   2.4951   2.4959   2.4959   2.5571   2.5571   2.5576   2.5576
     5.6258   5.6258   5.6276   5.6276   5.7883   5.7883   5.7921   5.7921
     6.2342   6.2342   6.2372   6.2372   6.2614   6.2614   6.2626   6.2626
     6.6326   6.6326   6.6364   6.6364   6.6485   6.6485   6.6492   6.6492
     6.7535   6.7535   6.7907   6.7907   6.7988   6.7988   6.8212   6.8212
     6.8851   6.8851   6.9317   6.9317   6.9510   6.9510   6.9635   6.9635
     7.0307   7.0307   7.0316   7.0316   7.0732   7.0732   7.0794   7.0794
     7.1479   7.1479   7.1530   7.1530   7.2244   7.2244   7.2252   7.2252
     7.7114   7.7114   7.7147   7.7147   8.0328   8.0328   8.0345   8.0345
     8.1181   8.1181   8.1201   8.1201   8.1546   8.1546   8.1597   8.1597
     8.2519   8.2519   8.2607   8.2607   8.3519   8.3519   8.3536   8.3536
     8.3953   8.3953   8.4044   8.4044   8.4692   8.4692   8.4706   8.4706
     8.5425   8.5426   8.5446   8.5446   8.6054   8.6054   8.6131   8.6131
     8.7835   8.7835   8.7850   8.7850   8.9645   8.9645   8.9686   8.9687
     9.1009   9.1009   9.1025   9.1025   9.2063   9.2063   9.2068   9.2068

          k = 0.0000-0.4812-0.1559 ( 80604 PWs)   bands (ev):

   -16.5942 -16.5942 -16.5927 -16.5927 -16.5908 -16.5908 -16.5893 -16.5893
   -16.5661 -16.5661 -16.5657 -16.5657 -16.5641 -16.5641 -16.5636 -16.5636
   -14.5850 -14.5850 -14.5842 -14.5842 -14.5839 -14.5839 -14.5830 -14.5830
   -14.5387 -14.5387 -14.5384 -14.5384 -14.5379 -14.5379 -14.5376 -14.5376
   -13.4023 -13.4023 -13.4019 -13.4019 -13.4019 -13.4019 -13.4015 -13.4015
   -13.2175 -13.2175 -13.2173 -13.2173 -13.2173 -13.2173 -13.2171 -13.2171
   -12.0551 -12.0551 -12.0542 -12.0542 -12.0499 -12.0499 -12.0490 -12.0490
   -11.9920 -11.9920 -11.9911 -11.9911 -11.9902 -11.9902 -11.9894 -11.9894
   -11.9648 -11.9648 -11.9644 -11.9644 -11.9640 -11.9640 -11.9636 -11.9636
   -11.5915 -11.5915 -11.5912 -11.5912 -11.5885 -11.5885 -11.5883 -11.5883
   -11.5554 -11.5554 -11.5552 -11.5552 -11.5547 -11.5547 -11.5544 -11.5544
   -10.4575 -10.4575 -10.4574 -10.4574 -10.4574 -10.4574 -10.4572 -10.4572
   -10.3033 -10.3033 -10.3032 -10.3032 -10.3025 -10.3025 -10.3024 -10.3024
   -10.0439 -10.0439 -10.0432 -10.0432 -10.0423 -10.0423 -10.0417 -10.0417
   -10.0078 -10.0078 -10.0069 -10.0069  -9.9848  -9.9848  -9.9841  -9.9841
    -9.1974  -9.1974  -9.1953  -9.1953  -9.1835  -9.1835  -9.1824  -9.1824
    -8.7673  -8.7673  -8.7655  -8.7655  -8.7548  -8.7548  -8.7537  -8.7537
    -8.5846  -8.5846  -8.5834  -8.5834  -8.5100  -8.5100  -8.5091  -8.5091
    -8.4470  -8.4470  -8.4453  -8.4453  -8.4043  -8.4043  -8.4027  -8.4027
    -8.0429  -8.0429  -8.0427  -8.0427  -8.0385  -8.0385  -8.0383  -8.0383
    -7.9532  -7.9532  -7.9531  -7.9531  -7.9492  -7.9492  -7.9491  -7.9491
    -7.0772  -7.0772  -7.0764  -7.0764  -7.0749  -7.0749  -7.0741  -7.0741
    -6.9678  -6.9678  -6.9667  -6.9667  -6.9645  -6.9645  -6.9634  -6.9634
    -6.4915  -6.4915  -6.4912  -6.4912  -6.4902  -6.4902  -6.4898  -6.4898
    -6.3883  -6.3883  -6.3880  -6.3880  -6.3828  -6.3828  -6.3825  -6.3825
    -5.8596  -5.8596  -5.8594  -5.8594  -5.8454  -5.8454  -5.8449  -5.8449
    -5.7695  -5.7695  -5.7687  -5.7687  -5.7526  -5.7526  -5.7525  -5.7525
    -5.7524  -5.7524  -5.7517  -5.7517  -5.7343  -5.7343  -5.7341  -5.7341
    -5.6196  -5.6196  -5.6192  -5.6192  -5.6006  -5.6006  -5.6001  -5.6001
    -4.9088  -4.9088  -4.9084  -4.9084  -4.8836  -4.8836  -4.8832  -4.8832
    -4.6532  -4.6532  -4.6529  -4.6529  -4.6349  -4.6349  -4.6346  -4.6346
    -4.5451  -4.5451  -4.5442  -4.5442  -4.4487  -4.4487  -4.4476  -4.4476
    -3.9645  -3.9645  -3.9639  -3.9639  -3.9616  -3.9616  -3.9611  -3.9611
    -3.9478  -3.9478  -3.9476  -3.9476  -3.9451  -3.9451  -3.9449  -3.9449
    -3.3185  -3.3185  -3.3179  -3.3179  -3.3158  -3.3158  -3.3153  -3.3153
    -3.2811  -3.2811  -3.2808  -3.2808  -3.2787  -3.2787  -3.2785  -3.2785
    -2.9212  -2.9212  -2.9211  -2.9211  -2.9083  -2.9083  -2.9081  -2.9081
    -2.7516  -2.7516  -2.7506  -2.7506  -2.7472  -2.7472  -2.7462  -2.7462
    -2.5305  -2.5305  -2.5297  -2.5297  -2.5050  -2.5050  -2.5042  -2.5042
    -2.4250  -2.4250  -2.4244  -2.4244  -2.4224  -2.4224  -2.4217  -2.4217
    -2.2366  -2.2366  -2.2361  -2.2361  -2.2354  -2.2354  -2.2350  -2.2350
    -2.0725  -2.0725  -2.0723  -2.0723  -2.0720  -2.0720  -2.0718  -2.0718
    -1.8061  -1.8061  -1.8057  -1.8057  -1.7656  -1.7656  -1.7652  -1.7652
    -1.7566  -1.7566  -1.7563  -1.7563  -1.6914  -1.6914  -1.6913  -1.6913
    -1.5448  -1.5448  -1.5445  -1.5445  -1.5436  -1.5436  -1.5433  -1.5433
    -1.3140  -1.3140  -1.3138  -1.3138  -1.2913  -1.2913  -1.2910  -1.2910
    -1.2174  -1.2174  -1.2173  -1.2173  -1.1936  -1.1936  -1.1934  -1.1934
    -0.9174  -0.9174  -0.9167  -0.9167  -0.9093  -0.9093  -0.9085  -0.9085
    -0.8908  -0.8908  -0.8901  -0.8901  -0.8700  -0.8700  -0.8694  -0.8694
    -0.5724  -0.5724  -0.5721  -0.5721  -0.5683  -0.5683  -0.5681  -0.5681
    -0.2252  -0.2252  -0.2250  -0.2250  -0.1759  -0.1759  -0.1757  -0.1757
    -0.1361  -0.1361  -0.1356  -0.1356  -0.1075  -0.1075  -0.1065  -0.1065
    -0.0670  -0.0670  -0.0667  -0.0667  -0.0520  -0.0520  -0.0518  -0.0518
    -0.0152  -0.0152  -0.0144  -0.0144  -0.0069  -0.0069  -0.0058  -0.0058
     0.0357   0.0357   0.0366   0.0366   0.1513   0.1513   0.1524   0.1524
     0.4358   0.4358   0.4370   0.4370   0.5365   0.5365   0.5376   0.5376
     0.5483   0.5483   0.5493   0.5493   0.7233   0.7233   0.7242   0.7242
     1.1412   1.1412   1.1420   1.1420   1.1940   1.1940   1.1944   1.1944
     1.2509   1.2509   1.2520   1.2520   1.3000   1.3000   1.3004   1.3004
     1.3625   1.3625   1.3627   1.3627   1.3876   1.3876   1.3884   1.3884
     1.4819   1.4819   1.4821   1.4821   1.4965   1.4965   1.4973   1.4973
     1.6516   1.6516   1.6520   1.6520   1.6582   1.6582   1.6588   1.6588
     1.7567   1.7567   1.7578   1.7578   1.7635   1.7635   1.7643   1.7643
     1.8013   1.8013   1.8016   1.8016   1.8603   1.8603   1.8614   1.8614
     1.8944   1.8944   1.8950   1.8950   1.8974   1.8974   1.8978   1.8978
     1.9476   1.9476   1.9479   1.9479   1.9508   1.9508   1.9515   1.9515
     2.0258   2.0258   2.0266   2.0266   2.0314   2.0314   2.0323   2.0323
     2.1147   2.1147   2.1159   2.1159   2.2011   2.2011   2.2014   2.2014
     2.2168   2.2168   2.2176   2.2176   2.2644   2.2644   2.2648   2.2648
     2.5174   2.5174   2.5178   2.5178   2.5419   2.5419   2.5421   2.5421
     5.6272   5.6272   5.6280   5.6280   5.7890   5.7890   5.7895   5.7895
     6.2311   6.2311   6.2318   6.2318   6.2677   6.2677   6.2683   6.2683
     6.6273   6.6273   6.6279   6.6279   6.6529   6.6529   6.6533   6.6533
     6.7461   6.7461   6.7466   6.7466   6.8439   6.8439   6.8446   6.8446
     6.9019   6.9019   6.9026   6.9026   6.9586   6.9586   6.9588   6.9588
     7.0270   7.0270   7.0273   7.0273   7.0832   7.0832   7.0838   7.0838
     7.1463   7.1463   7.1466   7.1466   7.2226   7.2226   7.2234   7.2234
     7.7113   7.7113   7.7131   7.7131   8.0390   8.0390   8.0407   8.0407
[...]
    -5.7410  -5.7409  -5.7409  -5.7408  -5.7332  -5.7331  -5.7330  -5.7330
    -5.6604  -5.6603  -5.6602  -5.6601  -5.6528  -5.6527  -5.6526  -5.6526
    -4.8730  -4.8729  -4.8729  -4.8729  -4.8382  -4.8382  -4.8382  -4.8381
    -4.7108  -4.7108  -4.7108  -4.7107  -4.6843  -4.6843  -4.6841  -4.6841
    -4.4408  -4.4408  -4.4407  -4.4406  -4.4389  -4.4389  -4.4388  -4.4387
    -4.0419  -4.0419  -4.0419  -4.0419  -4.0062  -4.0061  -4.0061  -4.0060
    -3.9293  -3.9293  -3.9292  -3.9292  -3.9132  -3.9132  -3.9131  -3.9131
    -3.3364  -3.3363  -3.3363  -3.3363  -3.3292  -3.3292  -3.3292  -3.3292
    -3.2741  -3.2740  -3.2740  -3.2739  -3.2685  -3.2685  -3.2684  -3.2684
    -2.9013  -2.9013  -2.9013  -2.9013  -2.8390  -2.8390  -2.8390  -2.8390
    -2.7960  -2.7960  -2.7958  -2.7958  -2.7919  -2.7919  -2.7918  -2.7917
    -2.5527  -2.5527  -2.5523  -2.5523  -2.5251  -2.5251  -2.5250  -2.5249
    -2.4777  -2.4777  -2.4773  -2.4772  -2.4073  -2.4072  -2.4071  -2.4070
    -2.2224  -2.2223  -2.2223  -2.2222  -2.1981  -2.1980  -2.1980  -2.1978
    -1.9769  -1.9769  -1.9769  -1.9769  -1.9184  -1.9184  -1.9184  -1.9183
    -1.8136  -1.8135  -1.8134  -1.8133  -1.7845  -1.7844  -1.7844  -1.7843
    -1.7309  -1.7309  -1.7308  -1.7307  -1.7149  -1.7148  -1.7147  -1.7146
    -1.5516  -1.5515  -1.5514  -1.5513  -1.5270  -1.5269  -1.5268  -1.5267
    -1.3615  -1.3612  -1.3612  -1.3609  -1.3500  -1.3498  -1.3496  -1.3494
    -1.2860  -1.2860  -1.2857  -1.2857  -1.2828  -1.2828  -1.2828  -1.2828
    -1.0017  -1.0016  -1.0014  -1.0014  -0.9207  -0.9206  -0.9199  -0.9198
    -0.8965  -0.8963  -0.8959  -0.8956  -0.8369  -0.8366  -0.8362  -0.8360
    -0.5806  -0.5804  -0.5787  -0.5784  -0.5578  -0.5575  -0.5567  -0.5564
    -0.3367  -0.3367  -0.3342  -0.3342  -0.3266  -0.3266  -0.3205  -0.3205
    -0.2107  -0.2106  -0.2089  -0.2088  -0.2006  -0.2006  -0.1995  -0.1995
    -0.1360  -0.1358  -0.1318  -0.1317  -0.1292  -0.1290  -0.1250  -0.1248
    -0.0519  -0.0517  -0.0487  -0.0486  -0.0397  -0.0396  -0.0394  -0.0393
     0.0341   0.0342   0.0357   0.0358   0.0459   0.0459   0.0467   0.0467
     0.5208   0.5209   0.5255   0.5256   0.5511   0.5511   0.5548   0.5548
     0.8525   0.8525   0.8550   0.8550   0.8659   0.8660   0.8734   0.8734
     1.1294   1.1295   1.1298   1.1299   1.1462   1.1462   1.1468   1.1469
     1.2493   1.2493   1.2519   1.2519   1.2563   1.2563   1.2565   1.2565
     1.5119   1.5119   1.5141   1.5141   1.5228   1.5229   1.5233   1.5234
     1.5762   1.5763   1.5782   1.5782   1.5804   1.5804   1.5841   1.5842
     1.6676   1.6678   1.6701   1.6703   1.6943   1.6944   1.6960   1.6961
     1.7437   1.7438   1.7469   1.7471   1.7556   1.7556   1.7592   1.7592
     1.8121   1.8122   1.8130   1.8130   1.8427   1.8427   1.8471   1.8471
     1.9063   1.9064   1.9097   1.9098   1.9116   1.9117   1.9135   1.9136
     1.9921   1.9922   1.9924   1.9925   2.0017   2.0018   2.0028   2.0029
     2.0557   2.0558   2.0566   2.0567   2.0896   2.0897   2.0898   2.0899
     2.1572   2.1572   2.1601   2.1601   2.1733   2.1734   2.1755   2.1756
     2.2977   2.2980   2.2988   2.2990   2.3282   2.3284   2.3307   2.3309
     2.5867   2.5868   2.5882   2.5882   2.5945   2.5946   2.5962   2.5963
     5.1549   5.1550   5.1570   5.1571   5.1660   5.1660   5.1672   5.1672
     6.3070   6.3071   6.3079   6.3081   6.3378   6.3379   6.3480   6.3480
     6.4727   6.4728   6.4830   6.4831   6.5082   6.5082   6.5142   6.5143
     6.6643   6.6645   6.6890   6.6891   6.7028   6.7029   6.7247   6.7248
     6.9374   6.9376   6.9385   6.9388   6.9716   6.9718   6.9720   6.9721
     7.0430   7.0431   7.0492   7.0493   7.0533   7.0534   7.0623   7.0624
     7.7275   7.7276   7.7293   7.7294   7.7659   7.7660   7.7736   7.7737
     8.0589   8.0590   8.0641   8.0641   8.0801   8.0802   8.0808   8.0809
     8.2735   8.2737   8.2770   8.2771   8.3064   8.3066   8.3149   8.3151
     8.3590   8.3590   8.3633   8.3635   8.3760   8.3761   8.3772   8.3773
     8.5285   8.5286   8.5403   8.5405   8.5498   8.5500   8.5544   8.5545
     8.6802   8.6804   8.6940   8.6942   8.7281   8.7283   8.7314   8.7316
     8.8453   8.8455   8.8464   8.8466   8.8605   8.8606   8.8729   8.8730
     8.9452   8.9453   8.9490   8.9491   8.9573   8.9575   8.9604   8.9605

          k =-0.5000-0.4812-0.0003 ( 80498 PWs)   bands (ev):

   -16.5914 -16.5914 -16.5913 -16.5913 -16.5899 -16.5899 -16.5897 -16.5897
   -16.5661 -16.5661 -16.5660 -16.5660 -16.5657 -16.5657 -16.5654 -16.5654
   -14.5846 -14.5846 -14.5845 -14.5845 -14.5838 -14.5838 -14.5837 -14.5837
   -14.5384 -14.5384 -14.5384 -14.5384 -14.5376 -14.5376 -14.5376 -14.5376
   -13.3802 -13.3802 -13.3802 -13.3802 -13.3794 -13.3794 -13.3793 -13.3793
   -13.2424 -13.2424 -13.2423 -13.2423 -13.2414 -13.2414 -13.2414 -13.2414
   -12.0546 -12.0546 -12.0545 -12.0545 -12.0537 -12.0537 -12.0537 -12.0537
   -11.9891 -11.9891 -11.9891 -11.9891 -11.9883 -11.9883 -11.9883 -11.9883
   -11.9645 -11.9645 -11.9644 -11.9644 -11.9637 -11.9637 -11.9636 -11.9636
   -11.6066 -11.6066 -11.6065 -11.6065 -11.6020 -11.6020 -11.6020 -11.6020
   -11.5515 -11.5515 -11.5514 -11.5514 -11.5466 -11.5466 -11.5465 -11.5465
   -10.4450 -10.4450 -10.4450 -10.4450 -10.4445 -10.4445 -10.4443 -10.4443
   -10.3059 -10.3059 -10.3058 -10.3058 -10.3055 -10.3055 -10.3053 -10.3053
   -10.0442 -10.0442 -10.0441 -10.0441 -10.0403 -10.0403 -10.0402 -10.0402
   -10.0039 -10.0039 -10.0038 -10.0038  -9.9998  -9.9998  -9.9997  -9.9997
    -9.0783  -9.0783  -9.0782  -9.0782  -9.0719  -9.0719  -9.0718  -9.0718
    -8.9413  -8.9413  -8.9412  -8.9412  -8.9305  -8.9305  -8.9304  -8.9304
    -8.5511  -8.5511  -8.5509  -8.5509  -8.5427  -8.5427  -8.5425  -8.5425
    -8.4045  -8.4045  -8.4043  -8.4043  -8.3993  -8.3993  -8.3991  -8.3991
    -8.0222  -8.0222  -8.0222  -8.0222  -7.9919  -7.9919  -7.9918  -7.9918
    -7.9328  -7.9328  -7.9327  -7.9327  -7.9114  -7.9114  -7.9113  -7.9113
    -7.0220  -7.0220  -7.0218  -7.0218  -7.0190  -7.0190  -7.0188  -7.0188
    -6.9895  -6.9895  -6.9894  -6.9894  -6.9885  -6.9885  -6.9883  -6.9883
    -6.4771  -6.4771  -6.4770  -6.4770  -6.4754  -6.4754  -6.4753  -6.4753
    -6.4076  -6.4076  -6.4075  -6.4075  -6.4051  -6.4051  -6.4050  -6.4050
    -5.8639  -5.8639  -5.8638  -5.8638  -5.8383  -5.8383  -5.8382  -5.8382
    -5.7793  -5.7793  -5.7791  -5.7791  -5.7571  -5.7571  -5.7569  -5.7569
    -5.7414  -5.7414  -5.7413  -5.7413  -5.7384  -5.7384  -5.7383  -5.7383
    -5.6641  -5.6641  -5.6640  -5.6640  -5.6627  -5.6627  -5.6626  -5.6626
    -4.8219  -4.8219  -4.8219  -4.8219  -4.8036  -4.8036  -4.8035  -4.8035
    -4.7519  -4.7519  -4.7518  -4.7518  -4.7371  -4.7371  -4.7370  -4.7370
    -4.4349  -4.4349  -4.4349  -4.4349  -4.4128  -4.4128  -4.4127  -4.4127
    -4.0305  -4.0305  -4.0304  -4.0304  -4.0178  -4.0178  -4.0177  -4.0177
    -3.9380  -3.9380  -3.9380  -3.9380  -3.9347  -3.9347  -3.9346  -3.9346
    -3.3295  -3.3295  -3.3295  -3.3295  -3.3293  -3.3293  -3.3292  -3.3292
    -3.2801  -3.2801  -3.2800  -3.2800  -3.2756  -3.2756  -3.2755  -3.2755
    -2.8743  -2.8743  -2.8741  -2.8741  -2.8704  -2.8704  -2.8702  -2.8702
    -2.7920  -2.7920  -2.7919  -2.7919  -2.7914  -2.7914  -2.7912  -2.7912
    -2.5401  -2.5401  -2.5400  -2.5400  -2.5237  -2.5237  -2.5236  -2.5236
    -2.4416  -2.4416  -2.4416  -2.4416  -2.4351  -2.4351  -2.4351  -2.4351
    -2.1725  -2.1725  -2.1724  -2.1724  -2.1714  -2.1714  -2.1713  -2.1713
    -1.9520  -1.9520  -1.9519  -1.9519  -1.9500  -1.9500  -1.9499  -1.9499
    -1.8073  -1.8073  -1.8073  -1.8073  -1.8019  -1.8019  -1.8018  -1.8018
    -1.7338  -1.7338  -1.7337  -1.7337  -1.7325  -1.7325  -1.7324  -1.7324
    -1.5408  -1.5408  -1.5407  -1.5407  -1.5292  -1.5292  -1.5292  -1.5292
    -1.3550  -1.3550  -1.3549  -1.3549  -1.3480  -1.3480  -1.3479  -1.3479
    -1.3049  -1.3049  -1.3049  -1.3049  -1.2953  -1.2953  -1.2953  -1.2953
    -0.9906  -0.9906  -0.9905  -0.9905  -0.9507  -0.9507  -0.9506  -0.9506
    -0.8731  -0.8731  -0.8727  -0.8727  -0.8635  -0.8635  -0.8632  -0.8632
    -0.5667  -0.5667  -0.5665  -0.5665  -0.5602  -0.5602  -0.5600  -0.5600
    -0.4224  -0.4224  -0.4219  -0.4219  -0.3951  -0.3951  -0.3949  -0.3949
    -0.2202  -0.2202  -0.2198  -0.2198  -0.1821  -0.1821  -0.1817  -0.1817
    -0.1333  -0.1333  -0.1330  -0.1330  -0.1135  -0.1135  -0.1131  -0.1131
    -0.0712  -0.0712  -0.0709  -0.0709  -0.0322  -0.0322  -0.0317  -0.0317
     0.0277   0.0277   0.0281   0.0281   0.0388   0.0388   0.0392   0.0392
     0.5083   0.5083   0.5084   0.5084   0.5691   0.5691   0.5693   0.5693
     0.9111   0.9111   0.9113   0.9113   0.9154   0.9154   0.9156   0.9156
     1.1196   1.1196   1.1198   1.1198   1.1260   1.1260   1.1263   1.1263
     1.1987   1.1987   1.1988   1.1988   1.2608   1.2608   1.2609   1.2609
     1.4881   1.4881   1.4882   1.4882   1.5484   1.5484   1.5485   1.5485
     1.6255   1.6255   1.6257   1.6257   1.6295   1.6295   1.6297   1.6297
     1.7155   1.7155   1.7156   1.7156   1.7421   1.7421   1.7421   1.7421
     1.7608   1.7608   1.7609   1.7609   1.7671   1.7671   1.7672   1.7672
     1.8535   1.8535   1.8537   1.8537   1.8598   1.8598   1.8601   1.8601
     1.8924   1.8924   1.8924   1.8924   1.9236   1.9236   1.9237   1.9237
     1.9603   1.9603   1.9604   1.9604   2.0099   2.0099   2.0100   2.0100
     2.0490   2.0490   2.0491   2.0491   2.0685   2.0685   2.0685   2.0685
     2.1263   2.1263   2.1264   2.1264   2.1925   2.1925   2.1925   2.1925
     2.3022   2.3022   2.3023   2.3023   2.3556   2.3556   2.3557   2.3557
     2.6182   2.6182   2.6183   2.6183   2.6538   2.6538   2.6539   2.6539
     4.9654   4.9654   4.9663   4.9663   4.9761   4.9761   4.9766   4.9766
     6.3007   6.3007   6.3010   6.3010   6.3107   6.3107   6.3110   6.3110
     6.4250   6.4250   6.4252   6.4252   6.5314   6.5314   6.5317   6.5317
     6.6309   6.6309   6.6311   6.6311   6.7247   6.7247   6.7250   6.7250
     6.9672   6.9672   6.9674   6.9674   7.0029   7.0029   7.0031   7.0031
     7.0391   7.0391   7.0394   7.0394   7.0866   7.0866   7.0869   7.0869
     7.9392   7.9392   7.9404   7.9404   7.9971   7.9971   7.9978   7.9978
     8.0903   8.0903   8.0907   8.0907   8.1107   8.1107   8.1112   8.1112
     8.3511   8.3511   8.3515   8.3515   8.3610   8.3610   8.3612   8.3612
     8.4746   8.4746   8.4749   8.4749   8.4903   8.4903   8.4908   8.4908
     8.6064   8.6064   8.6065   8.6066   8.6466   8.6466   8.6468   8.6468
     8.6967   8.6967   8.6969   8.6969   8.7035   8.7035   8.7040   8.7040
     8.7692   8.7692   8.7694   8.7694   8.8228   8.8228   8.8230   8.8230
     8.8849   8.8849   8.8849   8.8849   8.8942   8.8943   8.8944   8.8944

          k =-0.5000-0.4812-0.1560 ( 80578 PWs)   bands (ev):

   -16.5914 -16.5914 -16.5913 -16.5913 -16.5899 -16.5899 -16.5897 -16.5897
   -16.5661 -16.5661 -16.5660 -16.5660 -16.5657 -16.5657 -16.5654 -16.5654
   -14.5846 -14.5846 -14.5845 -14.5845 -14.5838 -14.5838 -14.5837 -14.5837
   -14.5384 -14.5384 -14.5384 -14.5384 -14.5377 -14.5377 -14.5376 -14.5376
   -13.3800 -13.3800 -13.3800 -13.3800 -13.3796 -13.3796 -13.3796 -13.3796
   -13.2421 -13.2421 -13.2419 -13.2419 -13.2418 -13.2418 -13.2417 -13.2417
   -12.0546 -12.0546 -12.0545 -12.0545 -12.0537 -12.0537 -12.0537 -12.0537
   -11.9891 -11.9891 -11.9891 -11.9891 -11.9883 -11.9883 -11.9883 -11.9883
   -11.9645 -11.9645 -11.9644 -11.9644 -11.9637 -11.9637 -11.9636 -11.9636
   -11.6046 -11.6046 -11.6045 -11.6045 -11.6043 -11.6043 -11.6043 -11.6043
   -11.5491 -11.5491 -11.5489 -11.5489 -11.5489 -11.5489 -11.5487 -11.5487
   -10.4450 -10.4450 -10.4450 -10.4450 -10.4445 -10.4445 -10.4443 -10.4443
   -10.3057 -10.3057 -10.3057 -10.3057 -10.3056 -10.3056 -10.3054 -10.3054
   -10.0426 -10.0426 -10.0426 -10.0426 -10.0420 -10.0420 -10.0419 -10.0419
   -10.0022 -10.0022 -10.0020 -10.0020 -10.0013 -10.0013 -10.0013 -10.0013
    -9.0760  -9.0760  -9.0758  -9.0758  -9.0743  -9.0743  -9.0742  -9.0742
    -8.9370  -8.9370  -8.9363  -8.9363  -8.9356  -8.9356  -8.9349  -8.9349
    -8.5475  -8.5475  -8.5464  -8.5464  -8.5461  -8.5461  -8.5451  -8.5451
    -8.4030  -8.4030  -8.4029  -8.4029  -8.4017  -8.4017  -8.4014  -8.4014
    -8.0089  -8.0089  -8.0087  -8.0087  -8.0086  -8.0086  -8.0084  -8.0084
    -7.9208  -7.9208  -7.9204  -7.9204  -7.9202  -7.9202  -7.9198  -7.9198
    -7.0208  -7.0208  -7.0207  -7.0207  -7.0198  -7.0198  -7.0197  -7.0197
    -6.9896  -6.9896  -6.9895  -6.9895  -6.9887  -6.9887  -6.9884  -6.9884
    -6.4763  -6.4763  -6.4761  -6.4761  -6.4760  -6.4760  -6.4760  -6.4760
    -6.4067  -6.4067  -6.4066  -6.4066  -6.4062  -6.4062  -6.4061  -6.4061
    -5.8530  -5.8530  -5.8529  -5.8529  -5.8527  -5.8527  -5.8525  -5.8525
    -5.7671  -5.7671  -5.7670  -5.7670  -5.7668  -5.7668  -5.7666  -5.7666
    -5.7395  -5.7395  -5.7395  -5.7395  -5.7391  -5.7391  -5.7389  -5.7389
    -5.6639  -5.6639  -5.6638  -5.6638  -5.6634  -5.6634  -5.6632  -5.6632
    -4.8123  -4.8123  -4.8123  -4.8123  -4.8120  -4.8120  -4.8120  -4.8120
    -4.7456  -4.7456  -4.7455  -4.7455  -4.7453  -4.7453  -4.7452  -4.7452
    -4.4241  -4.4241  -4.4241  -4.4241  -4.4231  -4.4231  -4.4231  -4.4231
    -4.0242  -4.0242  -4.0240  -4.0240  -4.0239  -4.0239  -4.0237  -4.0237
    -3.9365  -3.9365  -3.9364  -3.9364  -3.9363  -3.9363  -3.9361  -3.9361
    -3.3295  -3.3295  -3.3294  -3.3294  -3.3293  -3.3293  -3.3292  -3.3292
    -3.2782  -3.2782  -3.2780  -3.2780  -3.2775  -3.2775  -3.2774  -3.2774
    -2.8728  -2.8728  -2.8727  -2.8727  -2.8719  -2.8719  -2.8717  -2.8717
    -2.7919  -2.7919  -2.7918  -2.7918  -2.7914  -2.7914  -2.7912  -2.7912
    -2.5327  -2.5327  -2.5325  -2.5325  -2.5323  -2.5323  -2.5321  -2.5321
    -2.4386  -2.4386  -2.4382  -2.4382  -2.4379  -2.4379  -2.4375  -2.4375
    -2.1722  -2.1722  -2.1720  -2.1720  -2.1718  -2.1718  -2.1716  -2.1716
    -1.9510  -1.9510  -1.9510  -1.9510  -1.9508  -1.9508  -1.9507  -1.9507
    -1.8051  -1.8051  -1.8050  -1.8050  -1.8042  -1.8042  -1.8041  -1.8041
    -1.7335  -1.7335  -1.7331  -1.7331  -1.7330  -1.7330  -1.7328  -1.7328
    -1.5352  -1.5352  -1.5349  -1.5349  -1.5348  -1.5348  -1.5345  -1.5345
    -1.3526  -1.3526  -1.3524  -1.3524  -1.3514  -1.3514  -1.3511  -1.3511
    -1.3005  -1.3005  -1.3002  -1.3002  -1.3002  -1.3002  -1.2998  -1.2998
    -0.9711  -0.9711  -0.9700  -0.9700  -0.9693  -0.9693  -0.9691  -0.9691
    -0.8705  -0.8705  -0.8687  -0.8687  -0.8681  -0.8681  -0.8670  -0.8670
    -0.5663  -0.5663  -0.5652  -0.5652  -0.5625  -0.5625  -0.5621  -0.5621
    -0.4131  -0.4131  -0.4107  -0.4107  -0.4053  -0.4053  -0.4034  -0.4034
    -0.2053  -0.2053  -0.2020  -0.2020  -0.2004  -0.2004  -0.1997  -0.1997
    -0.1266  -0.1266  -0.1232  -0.1232  -0.1226  -0.1226  -0.1200  -0.1200
    -0.0526  -0.0526  -0.0507  -0.0507  -0.0495  -0.0495  -0.0488  -0.0488
     0.0320   0.0320   0.0324   0.0324   0.0327   0.0327   0.0333   0.0333
     0.5380   0.5380   0.5390   0.5390   0.5395   0.5395   0.5407   0.5407
     0.9114   0.9114   0.9115   0.9115   0.9160   0.9160   0.9161   0.9161
     1.1220   1.1220   1.1220   1.1220   1.1225   1.1225   1.1232   1.1232
     1.2257   1.2257   1.2269   1.2269   1.2282   1.2282   1.2303   1.2303
     1.5181   1.5181   1.5187   1.5187   1.5202   1.5202   1.5202   1.5202
     1.6276   1.6276   1.6287   1.6287   1.6291   1.6291   1.6293   1.6293
     1.7126   1.7126   1.7158   1.7158   1.7187   1.7187   1.7190   1.7190
     1.7818   1.7818   1.7830   1.7830   1.7849   1.7849   1.7852   1.7852
     1.8520   1.8520   1.8521   1.8521   1.8531   1.8531   1.8535   1.8535
     1.9008   1.9008   1.9013   1.9013   1.9020   1.9020   1.9040   1.9040
     1.9856   1.9856   1.9868   1.9868   1.9870   1.9870   1.9882   1.9882
     2.0549   2.0549   2.0557   2.0557   2.0565   2.0565   2.0572   2.0572
     2.1578   2.1578   2.1588   2.1588   2.1597   2.1597   2.1605   2.1605
     2.3318   2.3318   2.3320   2.3320   2.3337   2.3337   2.3338   2.3338
     2.6362   2.6362   2.6363   2.6363   2.6365   2.6365   2.6367   2.6367
     4.9662   4.9662   4.9675   4.9675   4.9749   4.9749   4.9758   4.9758
     6.3024   6.3024   6.3046   6.3046   6.3065   6.3065   6.3085   6.3085
     6.4587   6.4587   6.4623   6.4623   6.4750   6.4750   6.4777   6.4777
     6.6715   6.6715   6.6722   6.6722   6.7023   6.7023   6.7054   6.7054
     6.9752   6.9752   6.9778   6.9778   6.9816   6.9816   6.9840   6.9840
     7.0626   7.0626   7.0681   7.0681   7.0705   7.0705   7.0745   7.0745
     7.9413   7.9413   7.9426   7.9426   7.9902   7.9902   7.9989   7.9989
     8.0861   8.0861   8.0922   8.0922   8.1054   8.1054   8.1135   8.1135
     8.3563   8.3563   8.3587   8.3587   8.3593   8.3593   8.3691   8.3691
     8.4793   8.4793   8.4812   8.4812   8.4833   8.4833   8.4856   8.4856
     8.6242   8.6242   8.6253   8.6253   8.6268   8.6268   8.6279   8.6279
     8.6998   8.6998   8.7029   8.7029   8.7035   8.7035   8.7049   8.7049
     8.7796   8.7796   8.7819   8.7819   8.7825   8.7825   8.7849   8.7849
     8.8794   8.8794   8.8809   8.8809   8.8897   8.8897   8.8925   8.8925

     the Fermi energy is     3.8018 ev

!    total energy              =   -7960.82589870 Ry
     estimated scf accuracy    <       0.00000002 Ry
     smearing contrib. (-TS)   =       0.00000011 Ry
     internal energy E=F+TS    =   -7960.82589881 Ry

     The total energy is F=E-TS. E is the sum of the following terms:
     one-electron contribution =    -902.47127869 Ry
     hartree contribution      =     690.16708298 Ry
     xc contribution           =   -1223.82869876 Ry
     ewald contribution        =   -1109.31599407 Ry
     one-center paw contrib.   =   -5415.37701027 Ry

     convergence has been achieved in  13 iterations

     Writing all to output data dir ./out/SMBA2PbI4_151_157.save/
 
     init_run     :     18.67s CPU     19.36s WALL (       1 calls)
     electrons    :    621.96s CPU    631.62s WALL (       1 calls)

     Called by init_run:
     wfcinit      :     15.35s CPU     15.83s WALL (       1 calls)
     potinit      :      1.05s CPU      1.08s WALL (       1 calls)
     hinit0       :      1.46s CPU      1.61s WALL (       1 calls)

     Called by electrons:
     c_bands      :    539.03s CPU    544.37s WALL (      13 calls)
     sum_band     :     77.92s CPU     78.67s WALL (      13 calls)
     v_of_rho     :      0.59s CPU      0.62s WALL (      14 calls)
     newd         :      0.92s CPU      0.94s WALL (      14 calls)
     PAW_pot      :      0.58s CPU      0.60s WALL (      14 calls)
     mix_rho      :      1.89s CPU      2.23s WALL (      13 calls)

     Called by c_bands:
     init_us_2    :      1.07s CPU      1.08s WALL (     135 calls)
     init_us_2:cp :      1.07s CPU      1.08s WALL (     135 calls)
     cegterg      :    510.09s CPU    515.31s WALL (      65 calls)

     Called by *egterg:
     cdiaghg      :     65.24s CPU     66.13s WALL (     566 calls)
     h_psi        :    257.95s CPU    260.92s WALL (     571 calls)
     s_psi        :     31.02s CPU     31.45s WALL (     571 calls)
     g_psi        :      0.85s CPU      0.86s WALL (     501 calls)

     Called by h_psi:
     h_psi:calbec :     31.68s CPU     31.79s WALL (     571 calls)
     vloc_psi     :    190.13s CPU    192.13s WALL (     571 calls)
     add_vuspsi   :     34.13s CPU     34.81s WALL (     571 calls)

     General routines
     calbec       :     42.75s CPU     42.99s WALL (     636 calls)
     fft          :      0.83s CPU      0.91s WALL (     336 calls)
     ffts         :      0.09s CPU      0.10s WALL (     108 calls)
     fftw         :    174.50s CPU    176.08s WALL (  568496 calls)
     interpolate  :      0.20s CPU      0.20s WALL (      56 calls)
 
     Parallel routines
 
     PWSCF        :  10m51.79s CPU  11m12.67s WALL

 
   This run was terminated on:  19: 9:43  25Jun2023            

=------------------------------------------------------------------------------=
   JOB DONE.
=------------------------------------------------------------------------------=
TACC:  Shutdown complete. Exiting. 
